dimeth                                                                  
SP        UB3LYP TD-FC                                                6-31G               
Number of atoms                            I                4
Info1-9                                    I   N=           9
          14          14           0           0           0         110
           1         218        -501
Full Title                                 C   N=           1
dimeth      
Route                                      C   N=           7
#p B3LYP/6-31G nosym td=(nstates=3) scf=(maxcyc=2048,conver=
9) density=all pop=full 
Charge                                     I                1
Multiplicity                               I                2
Number of electrons                        I               15
Number of alpha electrons                  I                8
Number of beta electrons                   I                7
Number of basis functions                  I               22
Number of independent functions            I               22
Number of point charges in /Mol/           I                0
Number of translation vectors              I                0
Atomic numbers                             I   N=           4
           6           8           1           1
Nuclear charges                            R   N=           4
  6.00000000E+00  8.00000000E+00  1.00000000E+00  1.00000000E+00
Current cartesian coordinates              R   N=          12
 -2.42538789E+00  6.86930564E+00 -9.23887102E-02 -1.79864133E-01  6.48776994E+00
 -3.66871430E-01 -3.49211939E+00  6.47452296E+00  1.64748213E+00 -3.68154554E+00
  7.65877652E+00 -1.54829041E+00
Number of symbols in /Mol/                 I                0
Force Field                                I                0
Atom Types                                 C   N=           4
                                                
Int Atom Types                             I   N=           4
           0           0           0           0
MM charges                                 R   N=           4
  0.00000000E+00  0.00000000E+00  0.00000000E+00  0.00000000E+00
Integer atomic weights                     I   N=           4
          12          16           1           1
Real atomic weights                        R   N=           4
  1.20000000E+01  1.59949146E+01  1.00782504E+00  1.00782504E+00
Atom fragment info                         I   N=           4
           0           0           0           0
Atom residue num                           I   N=           4
           0           0           0           0
Nuclear spins                              I   N=           4
           0           0           1           1
Nuclear ZEff                               R   N=           4
 -3.60000000E+00 -5.60000000E+00 -1.00000000E+00 -1.00000000E+00
Nuclear ZNuc                               R   N=           4
  6.00000000E+00  8.00000000E+00  1.00000000E+00  1.00000000E+00
Nuclear QMom                               R   N=           4
  0.00000000E+00  0.00000000E+00  0.00000000E+00  0.00000000E+00
Nuclear GFac                               R   N=           4
  0.00000000E+00  0.00000000E+00  2.79284600E+00  2.79284600E+00
MicOpt                                     I   N=           4
          -1          -1          -1          -1
Number of residues                         I                0
Number of secondary structures             I                0
Number of contracted shells                I               10
Number of primitive shells                 I               28
Pure/Cartesian d shells                    I                1
Pure/Cartesian f shells                    I                0
Highest angular momentum                   I                1
Largest degree of contraction              I                6
Shell types                                I   N=          10
           0          -1          -1           0          -1          -1
           0           0           0           0
Number of primitives per shell             I   N=          10
           6           3           1           6           3           1
           3           1           3           1
Shell to atom map                          I   N=          10
           1           1           1           2           2           2
           3           3           4           4
Primitive exponents                        R   N=          28
  3.04752488E+03  4.57369518E+02  1.03948685E+02  2.92101553E+01  9.28666296E+00
  3.16392696E+00  7.86827235E+00  1.88128854E+00  5.44249258E-01  1.68714478E-01
  5.48467166E+03  8.25234946E+02  1.88046958E+02  5.29645000E+01  1.68975704E+01
  5.79963534E+00  1.55396162E+01  3.59993359E+00  1.01376175E+00  2.70005823E-01
  1.87311370E+01  2.82539436E+00  6.40121692E-01  1.61277759E-01  1.87311370E+01
  2.82539436E+00  6.40121692E-01  1.61277759E-01
Contraction coefficients                   R   N=          28
  1.83473713E-03  1.40373228E-02  6.88426223E-02  2.32184443E-01  4.67941348E-01
  3.62311985E-01 -1.19332420E-01 -1.60854152E-01  1.14345644E+00  1.00000000E+00
  1.83107443E-03  1.39501722E-02  6.84450781E-02  2.32714336E-01  4.70192898E-01
  3.58520853E-01 -1.10777550E-01 -1.48026263E-01  1.13076702E+00  1.00000000E+00
  3.34946043E-02  2.34726953E-01  8.13757326E-01  1.00000000E+00  3.34946043E-02
  2.34726953E-01  8.13757326E-01  1.00000000E+00
P(S=P) Contraction coefficients            R   N=          28
  0.00000000E+00  0.00000000E+00  0.00000000E+00  0.00000000E+00  0.00000000E+00
  0.00000000E+00  6.89990666E-02  3.16423961E-01  7.44308291E-01  1.00000000E+00
  0.00000000E+00  0.00000000E+00  0.00000000E+00  0.00000000E+00  0.00000000E+00
  0.00000000E+00  7.08742682E-02  3.39752839E-01  7.27158577E-01  1.00000000E+00
  0.00000000E+00  0.00000000E+00  0.00000000E+00  0.00000000E+00  0.00000000E+00
  0.00000000E+00  0.00000000E+00  0.00000000E+00
Coordinates of each shell                  R   N=          30
 -2.42538789E+00  6.86930564E+00 -9.23887102E-02 -2.42538789E+00  6.86930564E+00
 -9.23887102E-02 -2.42538789E+00  6.86930564E+00 -9.23887102E-02 -1.79864133E-01
  6.48776994E+00 -3.66871430E-01 -1.79864133E-01  6.48776994E+00 -3.66871430E-01
 -1.79864133E-01  6.48776994E+00 -3.66871430E-01 -3.49211939E+00  6.47452296E+00
  1.64748213E+00 -3.49211939E+00  6.47452296E+00  1.64748213E+00 -3.68154554E+00
  7.65877652E+00 -1.54829041E+00 -3.68154554E+00  7.65877652E+00 -1.54829041E+00
Num ILSW                                   I              100
ILSW                                       I   N=         100
           1           1           0           0           2           0
           0           0           0           0         402          -1
           5           0           0           0           0           0
           0           0           0           0           0           0
           1           1           0           0           0           0
           0           0      100000           0          -1           0
           0           0           0           0           0           0
           0           0           0           1           0           0
           0 -2000000000           1           0           0           0
           0           0           4          52           0           0
           0           0           5           0           0           0
           0           0           0           4           0           1
           0           0           0           0           0           0
           0           0           0           0           0           0
           0           0           0           0           0           0
           0           0           0           0           0           0
           0           0           0           0
Num RLSW                                   I               52
RLSW                                       R   N=          52
  8.00000000E-01  7.20000000E-01  1.00000000E+00  8.10000000E-01  2.00000000E-01
  0.00000000E+00  0.00000000E+00  1.00000000E+00  0.00000000E+00  0.00000000E+00
  0.00000000E+00  0.00000000E+00  1.00000000E+00  0.00000000E+00  0.00000000E+00
  0.00000000E+00  0.00000000E+00  1.00000000E+00  0.00000000E+00  0.00000000E+00
  0.00000000E+00  0.00000000E+00  1.00000000E+00  0.00000000E+00  0.00000000E+00
  0.00000000E+00  0.00000000E+00  1.00000000E+00  0.00000000E+00  0.00000000E+00
  0.00000000E+00  0.00000000E+00  1.00000000E+00  0.00000000E+00  0.00000000E+00
  0.00000000E+00  0.00000000E+00  0.00000000E+00  1.00000000E+00  1.00000000E+00
  0.00000000E+00  1.00000000E+00  0.00000000E+00  0.00000000E+00  0.00000000E+00
  0.00000000E+00  0.00000000E+00  0.00000000E+00  0.00000000E+00  0.00000000E+00
  0.00000000E+00  0.00000000E+00
MxBond                                     I                3
NBond                                      I   N=           4
           3           1           1           1
IBond                                      I   N=          12
           2           3           4           1           0           0
           1           0           0           1           0           0
RBond                                      R   N=          12
  2.00000000E+00  1.00000000E+00  1.00000000E+00  2.00000000E+00  0.00000000E+00
  0.00000000E+00  1.00000000E+00  0.00000000E+00  0.00000000E+00  1.00000000E+00
  0.00000000E+00  0.00000000E+00
Virial Ratio                               R      2.005295938260714E+00
SCF Energy                                 R     -1.140629085322084E+02
CIS Energy                                 R     -1.139225045593375E+02
Total Energy                               R     -1.139225045593375E+02
Post-SCF wavefunction norm                 R      1.000000000000000E+00
S**2                                       R      7.591823854050155E-01
S**2 after annihilation                    R      7.500536948939516E-01
RMS Density                                R      3.766412786408342E-10
Job Status                                 I                1
Nuclear derivative order                   I                0
External E-field                           R   N=          35
  0.00000000E+00  0.00000000E+00  0.00000000E+00  0.00000000E+00  0.00000000E+00
  0.00000000E+00  0.00000000E+00  0.00000000E+00  0.00000000E+00  0.00000000E+00
  0.00000000E+00  0.00000000E+00  0.00000000E+00  0.00000000E+00  0.00000000E+00
  0.00000000E+00  0.00000000E+00  0.00000000E+00  0.00000000E+00  0.00000000E+00
  0.00000000E+00  0.00000000E+00  0.00000000E+00  0.00000000E+00  0.00000000E+00
  0.00000000E+00  0.00000000E+00  0.00000000E+00  0.00000000E+00  0.00000000E+00
  0.00000000E+00  0.00000000E+00  0.00000000E+00  0.00000000E+00  0.00000000E+00
IOpCl                                      I                1
IROHF                                      I                0
Alpha Orbital Energies                     R   N=          22
 -1.96438561E+01 -1.06580248E+01 -1.51885016E+00 -1.00850158E+00 -8.96112940E-01
 -8.50189688E-01 -7.98653143E-01 -7.00035836E-01 -4.08981093E-01 -1.76430562E-01
 -1.19318595E-01 -1.02966925E-01  2.05425223E-01  2.74207024E-01  3.01181212E-01
  4.03346118E-01  5.28468652E-01  5.56726830E-01  6.00020198E-01  6.21133331E-01
  7.26450374E-01  1.21901436E+00
Beta Orbital Energies                      R   N=          22
 -1.96201257E+01 -1.06598882E+01 -1.47291644E+00 -9.86025996E-01 -8.34442327E-01
 -8.21965256E-01 -7.76154675E-01 -5.22824131E-01 -4.04026103E-01 -1.64420947E-01
 -9.95557768E-02 -9.57353059E-02  2.00393245E-01  2.93961267E-01  3.09094446E-01
  4.18556640E-01  5.58187115E-01  5.72546155E-01  6.17562530E-01  6.35567781E-01
  7.83433333E-01  1.24708166E+00
Alpha MO coefficients                      R   N=         484
  2.31853345E-04 -1.36715355E-04 -1.61425497E-04  2.74298826E-05  1.97271725E-05
  8.54541576E-03  5.69461709E-03 -9.67579809E-04 -6.96054789E-04  9.95006967E-01
  2.94671647E-02 -2.58530367E-03  4.39267248E-04  3.16016731E-04 -1.83656130E-02
  5.51301132E-03 -9.36709817E-04 -6.73894906E-04 -3.22600901E-04  2.59139819E-04
 -3.22596509E-04  2.59185729E-04  9.95010497E-01  3.39771459E-02  1.73773767E-03
 -2.95248423E-04 -2.12425566E-04 -1.70452591E-02  2.71266062E-03 -4.60938504E-04
 -3.31564652E-04 -1.51153291E-04 -2.66394369E-04  5.74416985E-04 -9.76000327E-05
 -7.02132324E-05 -8.59172279E-04  2.13836101E-03 -3.63320263E-04 -2.61387216E-04
 -1.04543400E-03  4.86974928E-03 -1.04545919E-03  4.86984963E-03 -1.04693909E-01
  2.13183962E-01  1.87235541E-01 -3.18130595E-02 -2.28868035E-02  1.36559596E-02
 -5.31523356E-02  9.03118110E-03  6.49701628E-03 -2.02595716E-01  4.73327454E-01
 -1.94855960E-01  3.31078668E-02  2.38183525E-02  4.09247368E-01 -7.26757361E-02
  1.23482886E-02  8.88358427E-03  2.17874148E-02 -1.09329276E-02  2.17876929E-02
 -1.09334467E-02 -1.71676579E-01  3.91488460E-01 -1.73070668E-01  2.94086318E-02
  2.11525636E-02  3.46559058E-01 -5.27273245E-02  8.95942213E-03  6.44504597E-03
  8.73589706E-02 -2.13707405E-01 -1.41383215E-01  2.40232867E-02  1.72808809E-02
 -2.70765377E-01 -4.15866119E-02  7.06626188E-03  5.08280197E-03  1.91301327E-01
  3.69450304E-02  1.91305817E-01  3.69457589E-02 -9.25342259E-07  2.43896946E-06
  2.27238096E-02 -1.42046612E-01  3.83318819E-01  2.52710444E-06  9.04406516E-03
 -5.65385786E-02  1.52572134E-01  1.45922587E-06 -3.36204127E-06  2.62042899E-02
 -1.63865631E-01  4.42204299E-01 -5.94445427E-06  1.18109518E-02 -7.38533431E-02
  1.99298583E-01  1.51512025E-01  3.91584375E-02 -1.51511289E-01 -3.91577123E-02
  8.08889042E-03 -6.19468862E-02 -3.88289295E-01  6.59744963E-02  4.74663852E-02
  3.98027571E-02 -6.44726072E-02  1.09543281E-02  7.88306072E-03 -8.47623917E-02
  1.92609192E-01  5.30641653E-01 -9.01615722E-02 -6.48565308E-02  3.36886196E-01
  2.00249438E-01 -3.40244633E-02 -2.44744099E-02  1.04922707E-01  5.52735956E-02
  1.04921826E-01  5.52738202E-02  3.22699164E-07 -6.84841194E-07  6.29903286E-02
  2.94809791E-01  1.05513625E-01 -7.00967740E-07  2.61470593E-02  1.22376632E-01
  4.37991334E-02  1.58127939E-07 -3.23638731E-07  1.18672108E-01  5.55438310E-01
  1.98793907E-01 -7.33843929E-07  6.45965943E-02  3.02339439E-01  1.08208650E-01
 -4.42196346E-07 -4.10842563E-07 -4.46418218E-07 -3.95395611E-07  1.42885393E-07
  1.06977210E-07 -1.74457036E-02  1.09072933E-01 -2.94339800E-01 -3.26721271E-06
 -5.89857457E-03  3.68830324E-02 -9.95314109E-02 -5.52227005E-08  2.22830596E-07
  3.07438122E-02 -1.92218438E-01  5.18713309E-01  3.51953772E-07  1.89670420E-02
 -1.18587016E-01  3.20014368E-01 -2.40109348E-01 -1.71392565E-01  2.40106888E-01
  1.71390573E-01  6.50831440E-07 -1.32695180E-06  1.17662332E-01  5.50697353E-01
  1.97096966E-01 -3.84096365E-06  1.02787701E-01  4.81079877E-01  1.72180449E-01
 -8.72889651E-08  3.71225569E-07 -8.19361925E-02 -3.83488554E-01 -1.37252218E-01
  1.46345139E-07 -7.20764498E-02 -3.37342816E-01 -1.20736434E-01  1.01699225E-06
  1.34046223E-06  1.00697701E-06  1.24192554E-06 -1.41200829E-01  3.03782528E-01
 -1.98120206E-01  3.36580269E-02  2.42385018E-02  1.89224365E+00 -3.51351294E-01
  5.96925916E-02  4.29797545E-02  2.22272314E-02 -5.92425828E-02  1.43499248E-01
 -2.43807768E-02 -1.75470227E-02 -2.35620591E-01  1.85555232E-01 -3.15262209E-02
 -2.26902047E-02 -1.54837807E-01 -1.23773487E+00 -1.54827479E-01 -1.23766853E+00
  6.70208090E-06 -9.81836842E-06  3.29417056E-02 -2.06002571E-01  5.55914735E-01
 -1.34693052E-04  6.30846236E-02 -3.94885713E-01  1.06566751E+00 -5.84421687E-06
  1.23012927E-05 -9.64367736E-03  6.01722066E-02 -1.62366740E-01  1.00613970E-04
 -1.51636220E-02  9.45182221E-02 -2.55035597E-01 -1.31747919E-01 -1.41481311E+00
  1.31755570E-01  1.41486190E+00 -4.12664592E-02 -1.55139822E-02  2.66305526E-01
 -4.52588971E-02 -3.25213453E-02  1.05287769E+00  1.85098472E+00 -3.14523865E-01
 -2.26194740E-01  9.45079091E-02 -1.89783933E-01  2.63098362E-01 -4.46998223E-02
 -3.21685623E-02 -1.76044490E+00  7.53179337E-01 -1.27966769E-01 -9.20792226E-02
 -2.65946606E-02  4.88646823E-01 -2.65827884E-02  4.88822256E-01 -2.78692879E-07
  2.69457944E-06 -1.99429251E-01 -9.33400457E-01 -3.34067946E-01  3.09927520E-07
  2.35155502E-01  1.10062051E+00  3.93916563E-01 -8.35246812E-09  1.04727693E-07
 -1.41894016E-02 -6.64134491E-02 -2.37696859E-02  4.53551960E-07 -2.29866847E-02
 -1.07585814E-01 -3.85053287E-02 -5.70001136E-08 -2.23087087E-06 -2.16020014E-07
 -2.48292105E-06  2.52722061E-06 -2.53446650E-06 -3.79396616E-02  2.37011007E-01
 -6.39570344E-01 -3.72816261E-05  1.07906878E-01 -6.74265534E-01  1.81950959E+00
 -8.79918707E-07  5.28108389E-06 -2.24423277E-02  1.40228362E-01 -3.78406896E-01
 -1.94376587E-05 -8.86512529E-04  5.51415806E-03 -1.48772705E-02 -3.50271807E-01
 -7.05878202E-01  3.50295446E-01  7.05915106E-01  6.83310083E-02 -3.65703926E-01
 -1.06823636E+00  1.81494050E-01  1.30602181E-01 -3.87243471E-01  1.25718865E+00
 -2.13589312E-01 -1.53733630E-01 -4.10126684E-02  1.95561383E-01 -4.40155878E-01
  7.47833226E-02  5.38142939E-02 -3.42266650E-01 -2.73918236E-01  4.65412770E-02
  3.34826279E-02  2.39030404E-01  2.42836895E-01  2.39014880E-01  2.42791790E-01
 -2.76177298E-02 -1.22400489E+00 -2.86150653E-01  4.86215107E-02  3.49733841E-02
  1.85826806E+00 -5.83195172E-01  9.90954986E-02  7.12863027E-02 -5.24599420E-03
 -1.11966157E-01 -1.65944768E-01  2.81932702E-02  2.02805184E-02  2.17293877E-01
 -1.49429905E-01  2.53906466E-02  1.82692612E-02 -7.01991077E-01 -1.99418052E-01
 -7.01975722E-01 -1.99453922E-01 -4.78278548E-06  1.24214997E-04  4.38703649E-02
 -2.74501546E-01  7.40779550E-01 -3.05128783E-04 -9.19797650E-02  5.75384571E-01
 -1.55273923E+00 -2.07211142E-06  1.13045186E-05 -1.47388795E-02  9.23957611E-02
 -2.49358303E-01  3.49548510E-05  2.85905896E-02 -1.79182492E-01  4.83574800E-01
 -7.53452288E-01  1.70612227E+00  7.53364367E-01 -1.70585881E+00  5.59714659E-02
 -8.79557802E-01  4.53394871E-01 -7.70632929E-02 -5.53513376E-02  2.72756125E+00
 -5.18710097E-01  8.81916162E-02  6.32574793E-02  3.76496372E-02 -2.25196090E-01
 -5.86200122E-01  9.96088945E-02  7.16299109E-02 -2.84466263E-01  1.07953104E+00
 -1.83439165E-01 -1.31909200E-01  4.03085660E-01 -1.15614599E+00  4.03225302E-01
 -1.15647438E+00  2.16042657E-07  6.69613381E-06  1.08454658E-02  5.07634335E-02
  1.81687391E-02 -1.46654824E-05 -1.00793915E-01 -4.71779617E-01 -1.68852753E-01
 -1.06920823E-08  5.39221153E-07 -1.79825401E-01 -8.41651044E-01 -3.01230548E-01
 -7.44805946E-07  2.52493030E-01  1.18176148E+00  4.22957566E-01  1.95236671E-06
  5.52672334E-06  2.36665853E-06  4.65375107E-06 -8.39860152E-03 -1.32018046E+00
  2.43556453E-01 -4.13926931E-02 -2.97483274E-02  1.94391038E+00 -5.31430601E-01
  9.03198352E-02  6.49015652E-02 -3.82162265E-02  3.07969928E-01  5.56173068E-01
 -9.44943222E-02 -6.80000450E-02 -2.69045751E-01 -8.52003561E-01  1.44753818E-01
  1.04174587E-01  4.03450066E-01 -1.00438259E+00  4.03488902E-01 -1.00449686E+00
  2.03193262E-07 -1.44236677E-05 -4.45477928E-03  2.78909024E-02 -7.52691837E-02
  7.22141537E-06  8.79447096E-02 -5.49793308E-01  1.48364575E+00  3.77460455E-08
 -8.09074258E-07  4.31683663E-02 -2.69846662E-01  7.28193060E-01 -4.00242673E-06
 -8.37352147E-02  5.23461032E-01 -1.41258531E+00 -4.69619727E-01 -4.09734296E-01
  4.69633022E-01  4.09728290E-01 -2.30909935E-02 -1.99428260E-01 -2.84141011E-01
  4.82772809E-02  3.47342411E-02 -2.24335145E+00 -1.32037528E+00  2.24347834E-01
  1.61385253E-01  3.53958880E-02 -1.80716267E+00  2.72570722E-01 -4.63118083E-02
 -3.33195567E-02  3.89597554E+00 -1.58563373E+00  2.69412612E-01  1.93826109E-01
  1.56692698E-01 -5.69920930E-02  1.56688720E-01 -5.70041380E-02
Beta MO coefficients                       R   N=         484
  2.20484894E-04 -5.75565073E-05 -8.72883885E-05  1.48331981E-05  1.06651728E-05
  8.20807958E-03  5.44546987E-03 -9.25246738E-04 -6.65601752E-04  9.95244291E-01
  2.81624489E-02 -2.52877652E-03  4.29662918E-04  3.09106766E-04 -1.76334146E-02
  5.35687849E-03 -9.10181623E-04 -6.54809238E-04 -3.03896742E-04  2.41573310E-04
 -3.03892719E-04  2.41616759E-04  9.94986584E-01  3.41004264E-02  1.76235981E-03
 -2.99432295E-04 -2.15434983E-04 -1.70966962E-02  2.69040747E-03 -4.57157264E-04
 -3.28844961E-04 -1.58368419E-04 -2.79410250E-04  5.82310774E-04 -9.89411806E-05
 -7.11782762E-05 -8.09318592E-04  2.12558276E-03 -3.61149176E-04 -2.59825161E-04
 -1.09364991E-03  4.88219529E-03 -1.09367551E-03  4.88229553E-03 -1.14203566E-01
  2.41570251E-01  2.04273970E-01 -3.47080413E-02 -2.49695251E-02  3.93297263E-02
 -4.83633549E-02  8.21749494E-03  5.91167074E-03 -1.93475153E-01  4.42552338E-01
 -2.04688873E-01  3.47786095E-02  2.50201843E-02  3.86685388E-01 -6.92545230E-02
  1.17670017E-02  8.46535944E-03  2.36360410E-02 -1.26582851E-02  2.36363978E-02
 -1.26587925E-02 -1.69765751E-01  3.84965121E-01 -2.10302724E-01  3.57348243E-02
  2.57033548E-02  3.65331008E-01 -6.38602199E-02  1.08510892E-02  7.80573907E-03
  9.04249140E-02 -2.17409693E-01 -1.06718440E-01  1.81332441E-02  1.30440216E-02
 -2.71624539E-01 -3.52655620E-02  5.99218384E-03  4.31034242E-03  1.77798307E-01
  3.12408812E-02  1.77803403E-01  3.12418607E-02 -1.54924198E-06  5.30190348E-06
  2.78314976E-02 -1.73906678E-01  4.69288160E-01  2.38979095E-06  1.25414131E-02
 -7.83910340E-02  2.11541024E-01  4.69517010E-06 -1.05685195E-05  1.55495403E-02
 -9.73528603E-02  2.62725556E-01 -1.86521150E-05  7.09932331E-03 -4.44371324E-02
  1.19921273E-01  1.84057632E-01  5.13707053E-02 -1.84062547E-01 -5.13728657E-02
  1.20106139E-02 -7.31398979E-02 -3.82482915E-01  6.49820919E-02  4.67735123E-02
  4.11354193E-02 -6.49776347E-02  1.10374612E-02  7.95264681E-03 -9.35538337E-02
  2.09246683E-01  5.21837573E-01 -8.86679102E-02 -6.37740233E-02  3.64641595E-01
  2.09311106E-01 -3.55650859E-02 -2.55792185E-02  8.83683385E-02  4.90913659E-02
  8.83543734E-02  4.90878916E-02  3.24892651E-07 -7.01351246E-07  7.20769625E-02
  3.37337828E-01  1.20734516E-01 -7.33743303E-07  3.17041755E-02  1.48385481E-01
  5.31077547E-02  2.07086373E-07 -4.17459992E-07  1.10461106E-01  5.17008572E-01
  1.85039750E-01 -9.86650658E-07  6.20598353E-02  2.90466805E-01  1.03959417E-01
 -3.91073928E-07 -3.89321808E-07 -3.34096673E-07 -3.64593607E-07  3.84858489E-08
  4.30009125E-07 -9.82236941E-03  6.14107584E-02 -1.65720745E-01 -3.49985656E-06
  2.91023003E-04 -1.80990755E-03  4.88314768E-03 -5.39007546E-08  2.85066801E-07
  3.31262340E-02 -2.07110366E-01  5.58899665E-01 -1.43391076E-07  2.39259478E-02
 -1.49588556E-01  4.03673717E-01 -2.00816988E-01 -2.35558392E-01  2.00815696E-01
  2.35557387E-01  5.80807178E-07 -1.16870051E-06  1.14454602E-01  5.35684483E-01
  1.91723794E-01 -3.63756734E-06  9.94988936E-02  4.65687841E-01  1.66671631E-01
 -8.09598810E-08  3.10073009E-07 -8.84276691E-02 -4.13871432E-01 -1.48126339E-01
  2.53983628E-07 -7.88211946E-02 -3.68910648E-01 -1.32034702E-01  9.59107454E-07
  1.22739298E-06  9.81330071E-07  1.21338111E-06 -1.35143977E-01  2.97177104E-01
 -2.02749745E-01  3.44461678E-02  2.47996007E-02  1.85551006E+00 -3.90538115E-01
  6.63540640E-02  4.77605559E-02  1.94931380E-02 -4.98683500E-02  1.31390617E-01
 -2.23235924E-02 -1.60662833E-02 -1.95478531E-01  1.66471758E-01 -2.82839825E-02
 -2.03569708E-02 -1.40349897E-01 -1.26134040E+00 -1.40343212E-01 -1.26129620E+00
 -1.25347550E-05  3.48849335E-06 -3.28172226E-02  2.05459457E-01 -5.54471552E-01
  3.03307804E-04 -6.15415586E-02  3.87058463E-01 -1.04471900E+00  2.12020579E-05
 -4.02510544E-05  1.08332732E-02 -6.73635684E-02  1.81749498E-01 -3.87697587E-04
  1.82302740E-02 -1.12963055E-01  3.04740559E-01  1.06077131E-01  1.41917700E+00
 -1.06091050E-01 -1.41906735E+00 -4.34513958E-02 -2.24979242E-02  2.42975930E-01
 -4.13266795E-02 -2.95809291E-02  1.13546979E+00  1.86393461E+00 -3.16783599E-01
 -2.27611129E-01  9.71065824E-02 -1.82309113E-01  2.63120431E-01 -4.46929152E-02
 -3.22014798E-02 -1.80692414E+00  7.61945658E-01 -1.29437711E-01 -9.32024321E-02
 -2.77441112E-02  4.49435615E-01 -2.77012129E-02  4.50062609E-01 -2.52239352E-07
  2.57354428E-06 -1.98249930E-01 -9.27879552E-01 -3.32092057E-01  1.12034107E-07
  2.36631877E-01  1.10752944E+00  3.96389549E-01 -1.97001062E-08  1.08946546E-07
 -1.37665049E-02 -6.44334927E-02 -2.30610686E-02  5.37717308E-07 -2.47169521E-02
 -1.15683588E-01 -4.14035913E-02 -4.07903376E-08 -2.26679418E-06 -1.24723591E-07
 -2.32637861E-06  4.30048977E-06 -1.20396996E-05 -4.03421414E-02  2.51855285E-01
 -6.79611364E-01 -5.23204534E-05  1.20095284E-01 -7.50267413E-01  2.02458556E+00
 -2.18039874E-06  1.07581264E-05 -2.11477473E-02  1.32062849E-01 -3.56364909E-01
 -2.61425774E-05 -8.52912918E-03  5.32401780E-02 -1.43663340E-01 -3.20115124E-01
 -8.81803230E-01  3.20150148E-01  8.81856605E-01  6.70474577E-02 -3.66790756E-01
 -1.08442147E+00  1.84237446E-01  1.32599944E-01 -4.55726114E-01  1.22886696E+00
 -2.08755939E-01 -1.50332197E-01 -4.51858519E-02  1.99240586E-01 -4.42395322E-01
  7.51606500E-02  5.40964407E-02 -2.85819281E-01 -3.15392892E-01  5.35855559E-02
  3.85604132E-02  2.14563307E-01  2.72975659E-01  2.14533805E-01  2.72871680E-01
 -2.57770246E-02 -1.34752633E+00 -2.15460544E-01  3.66119495E-02  2.63279587E-02
  2.17849726E+00 -6.80236265E-01  1.15580758E-01  8.31584817E-02 -4.71412832E-03
 -1.09122923E-01 -1.65864023E-01  2.81791952E-02  2.02714473E-02  1.86357927E-01
 -1.19310118E-01  2.02737442E-02  1.45851592E-02 -6.57622981E-01 -3.59910307E-01
 -6.57615578E-01 -3.59925984E-01 -9.56510201E-06  1.70557770E-04  4.11324092E-02
 -2.57591567E-01  6.95166828E-01 -4.74531992E-04 -7.99287961E-02  5.00181465E-01
 -1.34981292E+00 -4.61615597E-06  2.14493104E-05 -1.55344651E-02  9.76191908E-02
 -2.63478416E-01  6.60684699E-05  2.45138799E-02 -1.54173483E-01  4.16133023E-01
 -7.97641183E-01  1.60762317E+00  7.97463645E-01 -1.60719801E+00  5.89280102E-02
 -7.81591654E-01  4.46029689E-01 -7.58289379E-02 -5.44033827E-02  2.56795351E+00
 -4.27637136E-01  7.27461651E-02  5.20446944E-02  3.82054610E-02 -2.02832874E-01
 -5.98410462E-01  1.01691408E-01  7.31033240E-02 -3.40263679E-01  1.10431340E+00
 -1.87659176E-01 -1.34916020E-01  4.50214130E-01 -1.10839651E+00  4.50477998E-01
 -1.10894014E+00  2.66421405E-07  8.89569371E-06  1.01978944E-02  4.77332574E-02
  1.70841038E-02 -1.65431187E-05 -9.90285339E-02 -4.63519458E-01 -1.65896672E-01
  1.00258672E-07 -1.84629011E-07 -1.82003075E-01 -8.51834891E-01 -3.04875557E-01
 -5.14028294E-07  2.50948517E-01  1.17451862E+00  4.20365607E-01  1.47322563E-06
  6.65285393E-06  1.26989237E-06  6.17164697E-06 -5.71802371E-03 -1.25756481E+00
  2.51704859E-01 -4.27781032E-02 -3.07415538E-02  1.82585224E+00 -5.08277279E-01
  8.63829503E-02  6.20754318E-02 -3.90703849E-02  3.05743057E-01  5.59683498E-01
 -9.50930384E-02 -6.84285976E-02 -2.49301539E-01 -8.45248776E-01  1.43610932E-01
  1.03343774E-01  4.54072976E-01 -9.94790827E-01  4.54126551E-01 -9.94912876E-01
  1.59994037E-07 -8.18309639E-06 -4.51836611E-03  2.82751797E-02 -7.63048015E-02
 -4.00931820E-06  8.45519440E-02 -5.28572847E-01  1.42637962E+00  1.50997508E-07
 -2.57516299E-06  4.65160490E-02 -2.90788870E-01  7.84707041E-01 -5.15248159E-07
 -8.32542497E-02  5.20465810E-01 -1.40450223E+00 -4.29883963E-01 -4.19306761E-01
  4.29892627E-01  4.19310776E-01 -2.30568685E-02 -1.99549258E-01 -2.78390070E-01
  4.73001757E-02  3.40312090E-02 -2.21688143E+00 -1.31279467E+00  2.23059862E-01
  1.60458364E-01  3.78643640E-02 -1.81651738E+00  2.66867739E-01 -4.53427554E-02
 -3.26228344E-02  3.87962449E+00 -1.56394566E+00  2.65727543E-01  1.91175564E-01
  1.56811887E-01 -5.99352880E-02  1.56807568E-01 -5.99473557E-02
Orthonormal basis                          R   N=         484
  5.86230823E-02  2.15628762E-01  2.52120162E-03 -4.27893655E-04 -3.08278899E-04
  2.50561601E-01 -1.95703293E-02  3.32579011E-03  2.39236224E-03  2.09576941E-02
  8.14145216E-02 -6.05032525E-02  1.02801878E-02  7.39567630E-03  1.28021119E-01
 -1.45205257E-01  2.46720243E-02  1.77493290E-02  1.16601391E-01  1.86962737E-01
  1.16602552E-01  1.86963773E-01  3.17485363E-03  1.52890692E-02  2.50440500E-01
 -4.25570644E-02 -3.06014583E-02  1.63614256E-02  3.21974318E-01 -5.47128066E-02
 -3.93420835E-02  8.07195014E-02  2.45810915E-01 -5.93627664E-02  1.00842474E-02
  7.26096726E-03  2.62616667E-01 -2.85375696E-02  4.84480326E-03  3.49753997E-03
 -1.17364474E-01 -1.00791096E-01 -1.17382849E-01 -1.00806967E-01 -2.77417475E-07
 -9.82757603E-07  1.43262363E-02 -8.96366356E-02  2.41896196E-01 -6.64628940E-07
  1.90336457E-02 -1.19089522E-01  3.21378617E-01 -3.86286992E-06 -1.16878320E-05
  6.28444456E-03 -3.92732249E-02  1.05979417E-01 -1.24213993E-05  1.21908880E-02
 -7.62091505E-02  2.05653977E-01  1.82273337E-01  1.64047674E-01 -1.82261291E-01
 -1.64036068E-01 -4.52814136E-07 -1.00980804E-06  6.33682492E-02  2.96583670E-01
  1.06148564E-01 -8.41590168E-07  7.72355388E-02  3.61485525E-01  1.29377196E-01
  3.83194051E-07  9.15535943E-07  5.07482801E-02  2.37518612E-01  8.50089327E-02
  7.85984583E-07  7.68105559E-02  3.59497377E-01  1.28665641E-01  6.52062852E-08
 -1.43693972E-07  6.52070482E-08 -1.43695831E-07 -7.36170338E-02 -9.25406668E-02
 -2.23838952E-01  3.80321042E-02  2.73605447E-02  3.73754617E-02 -7.96685741E-03
  1.35314969E-03  9.73821729E-04  1.43329336E-01  2.53235160E-01  4.31485210E-01
 -7.33144945E-02 -5.27429973E-02  2.45454246E-01  4.10350076E-01 -6.97235574E-02
 -5.01595267E-02  9.42607271E-02  7.42145850E-02  9.42615338E-02  7.42145569E-02
  1.11362677E-06  1.15756470E-06 -5.79851644E-03  3.62465162E-02 -9.78127501E-02
 -2.39079097E-08 -3.27215571E-03  2.04584453E-02 -5.52083777E-02  2.21575406E-07
  2.80873318E-07  3.27230891E-02 -2.04584228E-01  5.52082233E-01  2.13991281E-07
  2.66702931E-02 -1.66743057E-01  4.49965748E-01 -2.35620155E-01 -1.19465084E-01
  2.35617596E-01  1.19462276E-01  4.70216168E-06  1.81359278E-06 -1.01409050E-01
 -4.74622739E-01 -1.69869457E-01  1.19496385E-06 -6.40507538E-02 -2.99779232E-01
 -1.07292285E-01 -5.52183768E-07 -2.43960359E-07  1.35090580E-01  6.32263624E-01