Pyrpheno                                                                
SP        RPBE1PBE TD-FC                                              3-21G               
Number of atoms                            I               22
Info1-9                                    I   N=           9
          32          32           0           0           0         110
           1         218        -301
Full Title                                 C   N=           1
Pyrpheno    
Route                                      C   N=           6
#P PBE1PBE/3-21G nosym density=(all) td=(nstates=6) scf=(max
cyc=2048)   
Charge                                     I                0
Multiplicity                               I                1
Number of electrons                        I               90
Number of alpha electrons                  I               45
Number of beta electrons                   I               45
Number of basis functions                  I              135
Number of independent functions            I              135
Number of point charges in /Mol/           I                0
Number of translation vectors              I                0
Atomic numbers                             I   N=          22
           6           6           1           6           1           6
           1           1           8           6           6           6
           6           6           1           1           1           1
           1           6           7           6
Nuclear charges                            R   N=          22
  6.00000000E+00  6.00000000E+00  1.00000000E+00  6.00000000E+00  1.00000000E+00
  6.00000000E+00  1.00000000E+00  1.00000000E+00  8.00000000E+00  6.00000000E+00
  6.00000000E+00  6.00000000E+00  6.00000000E+00  6.00000000E+00  1.00000000E+00
  1.00000000E+00  1.00000000E+00  1.00000000E+00  1.00000000E+00  6.00000000E+00
  7.00000000E+00  6.00000000E+00
Current cartesian coordinates              R   N=          66
  4.06004369E+00  1.56544283E+00  1.70048356E+00  6.68579959E+00  1.56206562E+00
  1.71101972E+00  3.01460320E+00  2.77728236E+00  2.99534303E+00  6.69712763E+00
 -1.57342264E+00 -1.65328999E+00  3.03416445E+00 -2.78228816E+00 -2.96794272E+00
  8.15813677E+00 -6.90896584E-03  3.49290455E-02  7.69299527E+00  2.78346263E+00
  3.02772577E+00  7.71409329E+00 -2.79701836E+00 -2.96046116E+00  1.05836003E+01
 -9.12024538E-03  4.50647415E-02  4.07139110E+00 -1.57177194E+00 -1.66518449E+00
 -3.89572710E+00 -1.57909294E+00  1.62261334E+00 -1.26154337E+00  1.54900850E+00
 -1.60762781E+00 -3.88011796E+00  1.58523455E+00 -1.65294344E+00 -5.22176682E+00
  4.11960295E-03 -2.00121997E-02 -9.31634979E-02  2.71803088E+00 -2.81588090E+00
 -4.83713196E+00  2.84324413E+00 -2.95791271E+00 -1.19657458E-01 -2.71829544E+00
  2.81431243E+00 -7.27391490E+00  6.27389073E-03 -2.83269946E-02 -4.86389048E+00
 -2.83579861E+00  2.92043944E+00 -1.27633992E+00 -1.54683532E+00  1.59719652E+00
  0.00000000E+00  0.00000000E+00  0.00000000E+00  2.75234831E+00 -2.26767135E-03
  1.23210143E-02
Number of symbols in /Mol/                 I                0
Force Field                                I                0
Atom Types                                 C   N=          22
                                                            
                                                            
                                                            
                                                            
                        
Int Atom Types                             I   N=          22
           0           0           0           0           0           0
           0           0           0           0           0           0
           0           0           0           0           0           0
           0           0           0           0
MM charges                                 R   N=          22
  0.00000000E+00  0.00000000E+00  0.00000000E+00  0.00000000E+00  0.00000000E+00
  0.00000000E+00  0.00000000E+00  0.00000000E+00  0.00000000E+00  0.00000000E+00
  0.00000000E+00  0.00000000E+00  0.00000000E+00  0.00000000E+00  0.00000000E+00
  0.00000000E+00  0.00000000E+00  0.00000000E+00  0.00000000E+00  0.00000000E+00
  0.00000000E+00  0.00000000E+00
Integer atomic weights                     I   N=          22
          12          12           1          12           1          12
           1           1          16          12          12          12
          12          12           1           1           1           1
           1          12          14          12
Real atomic weights                        R   N=          22
  1.20000000E+01  1.20000000E+01  1.00782504E+00  1.20000000E+01  1.00782504E+00
  1.20000000E+01  1.00782504E+00  1.00782504E+00  1.59949146E+01  1.20000000E+01
  1.20000000E+01  1.20000000E+01  1.20000000E+01  1.20000000E+01  1.00782504E+00
  1.00782504E+00  1.00782504E+00  1.00782504E+00  1.00782504E+00  1.20000000E+01
  1.40030740E+01  1.20000000E+01
Atom fragment info                         I   N=          22
           0           0           0           0           0           0
           0           0           0           0           0           0
           0           0           0           0           0           0
           0           0           0           0
Atom residue num                           I   N=          22
           0           0           0           0           0           0
           0           0           0           0           0           0
           0           0           0           0           0           0
           0           0           0           0
Nuclear spins                              I   N=          22
           0           0           1           0           1           0
           1           1           0           0           0           0
           0           0           1           1           1           1
           1           0           2           0
Nuclear ZEff                               R   N=          22
 -3.60000000E+00 -3.60000000E+00 -1.00000000E+00 -3.60000000E+00 -1.00000000E+00
 -3.60000000E+00 -1.00000000E+00 -1.00000000E+00 -5.60000000E+00 -3.60000000E+00
 -3.60000000E+00 -3.60000000E+00 -3.60000000E+00 -3.60000000E+00 -1.00000000E+00
 -1.00000000E+00 -1.00000000E+00 -1.00000000E+00 -1.00000000E+00 -3.60000000E+00
 -4.55000000E+00 -3.60000000E+00
Nuclear ZNuc                               R   N=          22
  6.00000000E+00  6.00000000E+00  1.00000000E+00  6.00000000E+00  1.00000000E+00
  6.00000000E+00  1.00000000E+00  1.00000000E+00  8.00000000E+00  6.00000000E+00
  6.00000000E+00  6.00000000E+00  6.00000000E+00  6.00000000E+00  1.00000000E+00
  1.00000000E+00  1.00000000E+00  1.00000000E+00  1.00000000E+00  6.00000000E+00
  7.00000000E+00  6.00000000E+00
Nuclear QMom                               R   N=          22
  0.00000000E+00  0.00000000E+00  0.00000000E+00  0.00000000E+00  0.00000000E+00
  0.00000000E+00  0.00000000E+00  0.00000000E+00  0.00000000E+00  0.00000000E+00
  0.00000000E+00  0.00000000E+00  0.00000000E+00  0.00000000E+00  0.00000000E+00
  0.00000000E+00  0.00000000E+00  0.00000000E+00  0.00000000E+00  0.00000000E+00
  2.04400000E+00  0.00000000E+00
Nuclear GFac                               R   N=          22
  0.00000000E+00  0.00000000E+00  2.79284600E+00  0.00000000E+00  2.79284600E+00
  0.00000000E+00  2.79284600E+00  2.79284600E+00  0.00000000E+00  0.00000000E+00
  0.00000000E+00  0.00000000E+00  0.00000000E+00  0.00000000E+00  2.79284600E+00
  2.79284600E+00  2.79284600E+00  2.79284600E+00  2.79284600E+00  0.00000000E+00
  4.03761000E-01  0.00000000E+00
MicOpt                                     I   N=          22
          -1          -1          -1          -1          -1          -1
          -1          -1          -1          -1          -1          -1
          -1          -1          -1          -1          -1          -1
          -1          -1          -1          -1
Number of residues                         I                0
Number of secondary structures             I                0
Number of contracted shells                I               57
Number of primitive shells                 I              105
Pure/Cartesian d shells                    I                1
Pure/Cartesian f shells                    I                0
Highest angular momentum                   I                1
Largest degree of contraction              I                3
Shell types                                I   N=          57
           0          -1          -1           0          -1          -1
           0           0           0          -1          -1           0
           0           0          -1          -1           0           0
           0           0           0          -1          -1           0
          -1          -1           0          -1          -1           0
          -1          -1           0          -1          -1           0
          -1          -1           0           0           0           0
           0           0           0           0           0           0
           0          -1          -1           0          -1          -1
           0          -1          -1
Number of primitives per shell             I   N=          57
           3           2           1           3           2           1
           2           1           3           2           1           2
           1           3           2           1           2           1
           2           1           3           2           1           3
           2           1           3           2           1           3
           2           1           3           2           1           3
           2           1           2           1           2           1
           2           1           2           1           2           1
           3           2           1           3           2           1
           3           2           1
Shell to atom map                          I   N=          57
           1           1           1           2           2           2
           3           3           4           4           4           5
           5           6           6           6           7           7
           8           8           9           9           9          10
          10          10          11          11          11          12
          12          12          13          13          13          14
          14          14          15          15          16          16
          17          17          18          18          19          19
          20          20          20          21          21          21
          22          22          22
Primitive exponents                        R   N=         105
  1.72256000E+02  2.59109000E+01  5.53335000E+00  3.66498000E+00  7.70545000E-01
  1.95857000E-01  1.72256000E+02  2.59109000E+01  5.53335000E+00  3.66498000E+00
  7.70545000E-01  1.95857000E-01  5.44717800E+00  8.24547240E-01  1.83191580E-01
  1.72256000E+02  2.59109000E+01  5.53335000E+00  3.66498000E+00  7.70545000E-01
  1.95857000E-01  5.44717800E+00  8.24547240E-01  1.83191580E-01  1.72256000E+02
  2.59109000E+01  5.53335000E+00  3.66498000E+00  7.70545000E-01  1.95857000E-01
  5.44717800E+00  8.24547240E-01  1.83191580E-01  5.44717800E+00  8.24547240E-01
  1.83191580E-01  3.22037000E+02  4.84308000E+01  1.04206000E+01  7.40294000E+00
  1.57620000E+00  3.73684000E-01  1.72256000E+02  2.59109000E+01  5.53335000E+00
  3.66498000E+00  7.70545000E-01  1.95857000E-01  1.72256000E+02  2.59109000E+01
  5.53335000E+00  3.66498000E+00  7.70545000E-01  1.95857000E-01  1.72256000E+02
  2.59109000E+01  5.53335000E+00  3.66498000E+00  7.70545000E-01  1.95857000E-01
  1.72256000E+02  2.59109000E+01  5.53335000E+00  3.66498000E+00  7.70545000E-01
  1.95857000E-01  1.72256000E+02  2.59109000E+01  5.53335000E+00  3.66498000E+00
  7.70545000E-01  1.95857000E-01  5.44717800E+00  8.24547240E-01  1.83191580E-01
  5.44717800E+00  8.24547240E-01  1.83191580E-01  5.44717800E+00  8.24547240E-01
  1.83191580E-01  5.44717800E+00  8.24547240E-01  1.83191580E-01  5.44717800E+00
  8.24547240E-01  1.83191580E-01  1.72256000E+02  2.59109000E+01  5.53335000E+00
  3.66498000E+00  7.70545000E-01  1.95857000E-01  2.42766000E+02  3.64851000E+01
  7.81449000E+00  5.42522000E+00  1.14915000E+00  2.83205000E-01  1.72256000E+02
  2.59109000E+01  5.53335000E+00  3.66498000E+00  7.70545000E-01  1.95857000E-01
Contraction coefficients                   R   N=         105
  6.17669074E-02  3.58794043E-01  7.00713084E-01 -3.95895162E-01  1.21583436E+00
  1.00000000E+00  6.17669074E-02  3.58794043E-01  7.00713084E-01 -3.95895162E-01
  1.21583436E+00  1.00000000E+00  1.56284979E-01  9.04690877E-01  1.00000000E+00
  6.17669074E-02  3.58794043E-01  7.00713084E-01 -3.95895162E-01  1.21583436E+00
  1.00000000E+00  1.56284979E-01  9.04690877E-01  1.00000000E+00  6.17669074E-02
  3.58794043E-01  7.00713084E-01 -3.95895162E-01  1.21583436E+00  1.00000000E+00
  1.56284979E-01  9.04690877E-01  1.00000000E+00  1.56284979E-01  9.04690877E-01
  1.00000000E+00  5.92393934E-02  3.51499961E-01  7.07657921E-01 -4.04453583E-01
  1.22156176E+00  1.00000000E+00  6.17669074E-02  3.58794043E-01  7.00713084E-01
 -3.95895162E-01  1.21583436E+00  1.00000000E+00  6.17669074E-02  3.58794043E-01
  7.00713084E-01 -3.95895162E-01  1.21583436E+00  1.00000000E+00  6.17669074E-02
  3.58794043E-01  7.00713084E-01 -3.95895162E-01  1.21583436E+00  1.00000000E+00
  6.17669074E-02  3.58794043E-01  7.00713084E-01 -3.95895162E-01  1.21583436E+00
  1.00000000E+00  6.17669074E-02  3.58794043E-01  7.00713084E-01 -3.95895162E-01
  1.21583436E+00  1.00000000E+00  1.56284979E-01  9.04690877E-01  1.00000000E+00
  1.56284979E-01  9.04690877E-01  1.00000000E+00  1.56284979E-01  9.04690877E-01
  1.00000000E+00  1.56284979E-01  9.04690877E-01  1.00000000E+00  1.56284979E-01
  9.04690877E-01  1.00000000E+00  6.17669074E-02  3.58794043E-01  7.00713084E-01
 -3.95895162E-01  1.21583436E+00  1.00000000E+00  5.98657005E-02  3.52955003E-01
  7.06513006E-01 -4.13300077E-01  1.22441727E+00  1.00000000E+00  6.17669074E-02
  3.58794043E-01  7.00713084E-01 -3.95895162E-01  1.21583436E+00  1.00000000E+00
P(S=P) Contraction coefficients            R   N=         105
  0.00000000E+00  0.00000000E+00  0.00000000E+00  2.36459947E-01  8.60618806E-01
  1.00000000E+00  0.00000000E+00  0.00000000E+00  0.00000000E+00  2.36459947E-01
  8.60618806E-01  1.00000000E+00  0.00000000E+00  0.00000000E+00  0.00000000E+00
  0.00000000E+00  0.00000000E+00  0.00000000E+00  2.36459947E-01  8.60618806E-01
  1.00000000E+00  0.00000000E+00  0.00000000E+00  0.00000000E+00  0.00000000E+00
  0.00000000E+00  0.00000000E+00  2.36459947E-01  8.60618806E-01  1.00000000E+00
  0.00000000E+00  0.00000000E+00  0.00000000E+00  0.00000000E+00  0.00000000E+00
  0.00000000E+00  0.00000000E+00  0.00000000E+00  0.00000000E+00  2.44586107E-01
  8.53955373E-01  1.00000000E+00  0.00000000E+00  0.00000000E+00  0.00000000E+00
  2.36459947E-01  8.60618806E-01  1.00000000E+00  0.00000000E+00  0.00000000E+00
  0.00000000E+00  2.36459947E-01  8.60618806E-01  1.00000000E+00  0.00000000E+00
  0.00000000E+00  0.00000000E+00  2.36459947E-01  8.60618806E-01  1.00000000E+00
  0.00000000E+00  0.00000000E+00  0.00000000E+00  2.36459947E-01  8.60618806E-01
  1.00000000E+00  0.00000000E+00  0.00000000E+00  0.00000000E+00  2.36459947E-01
  8.60618806E-01  1.00000000E+00  0.00000000E+00  0.00000000E+00  0.00000000E+00
  0.00000000E+00  0.00000000E+00  0.00000000E+00  0.00000000E+00  0.00000000E+00
  0.00000000E+00  0.00000000E+00  0.00000000E+00  0.00000000E+00  0.00000000E+00
  0.00000000E+00  0.00000000E+00  0.00000000E+00  0.00000000E+00  0.00000000E+00
  2.36459947E-01  8.60618806E-01  1.00000000E+00  0.00000000E+00  0.00000000E+00
  0.00000000E+00  2.37972016E-01  8.58953059E-01  1.00000000E+00  0.00000000E+00
  0.00000000E+00  0.00000000E+00  2.36459947E-01  8.60618806E-01  1.00000000E+00
Coordinates of each shell                  R   N=         171
  4.06004369E+00  1.56544283E+00  1.70048356E+00  4.06004369E+00  1.56544283E+00
  1.70048356E+00  4.06004369E+00  1.56544283E+00  1.70048356E+00  6.68579959E+00
  1.56206562E+00  1.71101972E+00  6.68579959E+00  1.56206562E+00  1.71101972E+00
  6.68579959E+00  1.56206562E+00  1.71101972E+00  3.01460320E+00  2.77728236E+00
  2.99534303E+00  3.01460320E+00  2.77728236E+00  2.99534303E+00  6.69712763E+00
 -1.57342264E+00 -1.65328999E+00  6.69712763E+00 -1.57342264E+00 -1.65328999E+00
  6.69712763E+00 -1.57342264E+00 -1.65328999E+00  3.03416445E+00 -2.78228816E+00
 -2.96794272E+00  3.03416445E+00 -2.78228816E+00 -2.96794272E+00  8.15813677E+00
 -6.90896584E-03  3.49290455E-02  8.15813677E+00 -6.90896584E-03  3.49290455E-02
  8.15813677E+00 -6.90896584E-03  3.49290455E-02  7.69299527E+00  2.78346263E+00
  3.02772577E+00  7.69299527E+00  2.78346263E+00  3.02772577E+00  7.71409329E+00
 -2.79701836E+00 -2.96046116E+00  7.71409329E+00 -2.79701836E+00 -2.96046116E+00
  1.05836003E+01 -9.12024538E-03  4.50647415E-02  1.05836003E+01 -9.12024538E-03
  4.50647415E-02  1.05836003E+01 -9.12024538E-03  4.50647415E-02  4.07139110E+00
 -1.57177194E+00 -1.66518449E+00  4.07139110E+00 -1.57177194E+00 -1.66518449E+00
  4.07139110E+00 -1.57177194E+00 -1.66518449E+00 -3.89572710E+00 -1.57909294E+00
  1.62261334E+00 -3.89572710E+00 -1.57909294E+00  1.62261334E+00 -3.89572710E+00
 -1.57909294E+00  1.62261334E+00 -1.26154337E+00  1.54900850E+00 -1.60762781E+00
 -1.26154337E+00  1.54900850E+00 -1.60762781E+00 -1.26154337E+00  1.54900850E+00
 -1.60762781E+00 -3.88011796E+00  1.58523455E+00 -1.65294344E+00 -3.88011796E+00
  1.58523455E+00 -1.65294344E+00 -3.88011796E+00  1.58523455E+00 -1.65294344E+00
 -5.22176682E+00  4.11960295E-03 -2.00121997E-02 -5.22176682E+00  4.11960295E-03
 -2.00121997E-02 -5.22176682E+00  4.11960295E-03 -2.00121997E-02 -9.31634979E-02
  2.71803088E+00 -2.81588090E+00 -9.31634979E-02  2.71803088E+00 -2.81588090E+00
 -4.83713196E+00  2.84324413E+00 -2.95791271E+00 -4.83713196E+00  2.84324413E+00
 -2.95791271E+00 -1.19657458E-01 -2.71829544E+00  2.81431243E+00 -1.19657458E-01
 -2.71829544E+00  2.81431243E+00 -7.27391490E+00  6.27389073E-03 -2.83269946E-02
 -7.27391490E+00  6.27389073E-03 -2.83269946E-02 -4.86389048E+00 -2.83579861E+00
  2.92043944E+00 -4.86389048E+00 -2.83579861E+00  2.92043944E+00 -1.27633992E+00
 -1.54683532E+00  1.59719652E+00 -1.27633992E+00 -1.54683532E+00  1.59719652E+00
 -1.27633992E+00 -1.54683532E+00  1.59719652E+00  0.00000000E+00  0.00000000E+00
  0.00000000E+00  0.00000000E+00  0.00000000E+00  0.00000000E+00  0.00000000E+00
  0.00000000E+00  0.00000000E+00  2.75234831E+00 -2.26767135E-03  1.23210143E-02
  2.75234831E+00 -2.26767135E-03  1.23210143E-02  2.75234831E+00 -2.26767135E-03
  1.23210143E-02
Num ILSW                                   I              100
ILSW                                       I   N=         100
           0           1           0           0           2           0
           0           0           0           0        1009          -1
           5           0           0           0           0           0
           0           0           0           0           0           0
           1           1           0           0           0           0
           0           0      100000           0          -1           0
           0           0           0           0           0           0
           0           0           0           1           0           0
           0 -2000000000           1           0           0           0
           0           0           4          52           0           0
           0           0          13           0           0           0
           0           0           0          22           0           1
           0           0           0           0           0           0
           0           0           0           0           0           0
           0           0           0           0           0           0
           0           0           0           0           0           0
           0           0           0           0
Num RLSW                                   I               52
RLSW                                       R   N=          52
  7.50000000E-01  7.50000000E-01  1.00000000E+00  1.00000000E+00  2.50000000E-01
  0.00000000E+00  0.00000000E+00  1.00000000E+00  0.00000000E+00  0.00000000E+00
  0.00000000E+00  0.00000000E+00  1.00000000E+00  0.00000000E+00  0.00000000E+00
  0.00000000E+00  0.00000000E+00  1.00000000E+00  0.00000000E+00  0.00000000E+00
  0.00000000E+00  0.00000000E+00  1.00000000E+00  0.00000000E+00  0.00000000E+00
  0.00000000E+00  0.00000000E+00  1.00000000E+00  0.00000000E+00  0.00000000E+00
  0.00000000E+00  0.00000000E+00  1.00000000E+00  0.00000000E+00  0.00000000E+00
  0.00000000E+00  0.00000000E+00  0.00000000E+00  1.00000000E+00  1.00000000E+00
  0.00000000E+00  1.00000000E+00  0.00000000E+00  0.00000000E+00  0.00000000E+00
  0.00000000E+00  0.00000000E+00  0.00000000E+00  0.00000000E+00  0.00000000E+00
  0.00000000E+00  0.00000000E+00
MxBond                                     I                3
NBond                                      I   N=          22
           3           3           1           3           1           3
           1           1           1           3           3           3
           3           3           1           1           1           1
           1           3           3           3
IBond                                      I   N=          66
           2           3          22           1           6           7
           1           0           0           6           8          10
          10           0           0           2           4           9
           2           0           0           4           0           0
           6           0           0           4           5          22
          14          19          20          13          15          21
          12          14          16          11          13          18
          12           0           0          13           0           0
          20           0           0          14           0           0
          11           0           0          11          17          21
          12          20          22           1          10          21
RBond                                      R   N=          66
  1.50000000E+00  1.00000000E+00  1.50000000E+00  1.50000000E+00  1.00000000E+00
  1.00000000E+00  1.00000000E+00  0.00000000E+00  0.00000000E+00  1.00000000E+00
  1.00000000E+00  1.50000000E+00  1.00000000E+00  0.00000000E+00  0.00000000E+00
  1.00000000E+00  1.00000000E+00  1.00000000E+00  1.00000000E+00  0.00000000E+00
  0.00000000E+00  1.00000000E+00  0.00000000E+00  0.00000000E+00  1.00000000E+00
  0.00000000E+00  0.00000000E+00  1.50000000E+00  1.00000000E+00  1.50000000E+00
  1.50000000E+00  1.00000000E+00  1.50000000E+00  1.50000000E+00  1.00000000E+00
  1.50000000E+00  1.50000000E+00  1.50000000E+00  1.00000000E+00  1.50000000E+00
  1.50000000E+00  1.00000000E+00  1.00000000E+00  0.00000000E+00  0.00000000E+00
  1.00000000E+00  0.00000000E+00  0.00000000E+00  1.00000000E+00  0.00000000E+00
  0.00000000E+00  1.00000000E+00  0.00000000E+00  0.00000000E+00  1.00000000E+00
  0.00000000E+00  0.00000000E+00  1.50000000E+00  1.00000000E+00  1.50000000E+00
  1.50000000E+00  1.50000000E+00  1.00000000E+00  1.50000000E+00  1.50000000E+00
  1.00000000E+00
Virial Ratio                               R      2.008253768239527E+00
SCF Energy                                 R     -5.507897471298018E+02
CIS Energy                                 R     -5.507756529512546E+02
Total Energy                               R     -5.507756529512546E+02
Post-SCF wavefunction norm                 R      1.000000000000000E+00
RMS Density                                R      2.671237053415448E-09
Job Status                                 I                1
Nuclear derivative order                   I                0
External E-field                           R   N=          35
  0.00000000E+00  0.00000000E+00  0.00000000E+00  0.00000000E+00  0.00000000E+00
  0.00000000E+00  0.00000000E+00  0.00000000E+00  0.00000000E+00  0.00000000E+00
  0.00000000E+00  0.00000000E+00  0.00000000E+00  0.00000000E+00  0.00000000E+00
  0.00000000E+00  0.00000000E+00  0.00000000E+00  0.00000000E+00  0.00000000E+00
  0.00000000E+00  0.00000000E+00  0.00000000E+00  0.00000000E+00  0.00000000E+00
  0.00000000E+00  0.00000000E+00  0.00000000E+00  0.00000000E+00  0.00000000E+00
  0.00000000E+00  0.00000000E+00  0.00000000E+00  0.00000000E+00  0.00000000E+00
IOpCl                                      I                0
IROHF                                      I                0
Alpha Orbital Energies                     R   N=         135
 -1.89870949E+01 -1.44804417E+01 -1.02998066E+01 -1.02993344E+01 -1.02707911E+01
 -1.02633385E+01 -1.02631304E+01 -1.01995567E+01 -1.01743157E+01 -1.01661051E+01
 -1.01659535E+01 -1.01300773E+01 -1.01298122E+01 -1.10217584E+00 -9.46066022E-01
 -9.26837016E-01 -8.76296402E-01 -8.45745581E-01 -7.58224457E-01 -7.45719641E-01
 -7.43621738E-01 -7.06298950E-01 -6.35580198E-01 -6.07588392E-01 -5.92048677E-01
 -5.80911465E-01 -5.54963918E-01 -5.41068965E-01 -5.28131260E-01 -5.13667811E-01
 -4.60508248E-01 -4.55601626E-01 -4.46710524E-01 -4.39927297E-01 -4.13332498E-01
 -3.98942298E-01 -3.80631187E-01 -3.64005969E-01 -3.52759040E-01 -3.27127135E-01
 -3.13172240E-01 -2.88435261E-01 -2.37652937E-01 -1.61433622E-01 -1.44946862E-01
 -1.08397372E-01 -7.34594141E-02  4.17345694E-02  5.92786003E-02  6.19558815E-02
  7.66562062E-02  1.15912344E-01  1.23415623E-01  1.38321186E-01  1.59325085E-01
  1.69243511E-01  1.78653803E-01  1.92342306E-01  2.16909799E-01  2.33909438E-01
  2.52341466E-01  2.61692758E-01  2.67873899E-01  2.85798825E-01  2.87676870E-01
  2.97671153E-01  3.83357020E-01  3.95708133E-01  4.08390263E-01  4.45125262E-01
  4.61159253E-01  4.78229260E-01  5.98671397E-01  6.24345392E-01  6.35292988E-01
  6.41962617E-01  6.46553333E-01  6.63541447E-01  7.00113180E-01  7.03617248E-01
  7.16274778E-01  7.24566284E-01  7.39144331E-01  7.58705579E-01  7.60412540E-01
  7.71662915E-01  7.93939345E-01  7.99204572E-01  8.04904767E-01  8.32163454E-01
  8.47681668E-01  8.80459648E-01  8.81916339E-01  8.95390992E-01  9.02481407E-01
  9.16990551E-01  9.32805711E-01  9.61777055E-01  9.83153382E-01  9.90452121E-01
  1.03585042E+00  1.05708383E+00  1.06247183E+00  1.06272853E+00  1.08798815E+00
  1.18066877E+00  1.18423745E+00  1.20090180E+00  1.20406261E+00  1.20957048E+00
  1.29870022E+00  1.30064582E+00  1.34764471E+00  1.35367363E+00  1.37260103E+00
  1.41013145E+00  1.41957273E+00  1.44550183E+00  1.49216610E+00  1.54539628E+00
  1.58137049E+00  1.58717178E+00  1.61211796E+00  1.64294811E+00  1.67272960E+00
  1.75255592E+00  1.81875355E+00  1.82161197E+00  1.88437084E+00  1.93134843E+00
  2.01312942E+00  2.09911693E+00  2.46339149E+00  2.92512592E+00  3.55122336E+00
Alpha MO coefficients                      R   N=       18225
  3.45512982E-04  1.50392237E-03 -7.46827911E-04  2.16620826E-05  2.18817057E-05
 -2.83458127E-02 -1.24607648E-02  8.12663466E-03  8.64448791E-03 -3.48501964E-04
 -1.88750000E-03  1.18658161E-03  2.17654372E-04  2.40041226E-04  2.90594416E-02
 -2.10800940E-02 -1.42035824E-02 -1.53553681E-02 -5.75551315E-04 -3.48310940E-03
 -3.48466146E-04 -1.88742835E-03  1.18909811E-03 -2.20322116E-04 -2.29024484E-04
  2.90587181E-02 -2.12040374E-02  1.42425436E-02  1.51631741E-02 -5.75759518E-04
 -3.48335179E-03  3.60806181E-04  3.73035944E-03  6.41149545E-04 -3.96863030E-07
  2.68748430E-06 -1.59609749E-03  5.27859429E-02 -5.59676989E-05  2.14491357E-04
  2.23177717E-03  8.54409131E-03  2.23256823E-03  8.54412195E-03  9.83082369E-01
  1.07893150E-01 -4.55708149E-03  3.99011861E-06 -1.91573750E-05 -6.97840866E-02
  1.88393292E-02 -1.61595820E-05  7.94850764E-05  3.45589923E-04  1.50433375E-03
 -7.46810296E-04 -1.99481703E-05 -2.82522943E-05 -2.83535183E-02 -1.24154227E-02
 -8.10111192E-03 -8.74583110E-03 -8.99027077E-06 -5.60405666E-05 -1.98962876E-05
 -1.04479091E-05  8.13498640E-06  4.57510199E-04  3.03186594E-04  5.50588463E-05
 -4.04518050E-05 -1.60450906E-05 -1.02826021E-04 -6.37484268E-05  2.74051061E-06
 -1.41305124E-05  2.75474656E-04  6.05714441E-04 -2.20742260E-04  2.64720634E-04
 -8.92351775E-06 -5.56605103E-05 -1.99280466E-05  1.04785802E-05 -8.23618442E-06
  4.53274631E-04  2.99421661E-04 -5.54407691E-05  4.25212109E-05  1.26326521E-06
  8.75384628E-07 -9.03724899E-06  9.42820596E-08 -1.17074669E-07 -7.40237116E-05
 -1.60197361E-04 -3.13196194E-07 -1.31261538E-07 -3.03486361E-05  7.42921022E-05
 -7.82844844E-06  7.91539090E-05 -3.07830435E-05  7.39955508E-05 -2.24992815E-05
 -3.04562729E-05 -7.87334531E-06  7.94963739E-05 -1.60722937E-05 -1.03174509E-04
 -6.47798536E-05 -2.98148457E-06  1.38284239E-05  2.71972890E-04  6.13812600E-04
  2.19348996E-04 -2.59498886E-04 -7.55384126E-05 -3.77700022E-04 -3.23071015E-05
  1.61410435E-07 -5.36549909E-07  4.01664236E-03  2.29769342E-03 -2.63213572E-06
  1.17040958E-05 -2.22928209E-04 -1.10102606E-03 -5.04046300E-04 -2.30531356E-07
 -1.94919416E-06  1.61838615E-02  1.55821370E-02 -6.39310245E-06  6.71100638E-05
 -1.77275408E-04 -1.11214737E-03 -1.64203393E-04  1.77474474E-04  2.14269438E-04
  1.17084941E-02  7.97619033E-03 -7.39174026E-03 -7.95938206E-03  2.44835273E-05
 -1.39911390E-04  7.13583445E-04  1.31387797E-04  1.39519752E-04 -8.38157518E-03
  2.32085714E-03  1.65139139E-03  1.81837197E-03  9.94447940E-04  4.40767827E-03
  2.43667464E-05 -1.40575250E-04  7.14477250E-04 -1.32371273E-04 -1.33637890E-04
 -8.37552567E-03  2.32688652E-03 -1.65794133E-03 -1.79755618E-03  9.92861978E-04
  4.40663817E-03 -9.40203743E-05 -5.44979483E-04  1.13010050E-04  1.22084849E-07