push-pull                                                               
SP        RHF-FC                                                      6-31G               
Number of atoms                            I               22
Info1-9                                    I   N=           9
          32          32           0           0           0         110
           1         301           1
Full Title                                 C   N=           1
push-pull   
Route                                      C   N=           6
#p CIS/6-31G nosym td=(nstates=3) scf=(maxcyc=2048,conver=9)
 density=all
Charge                                     I                0
Multiplicity                               I                1
Number of electrons                        I               88
Number of alpha electrons                  I               44
Number of beta electrons                   I               44
Number of basis functions                  I              128
Number of independent functions            I              128
Number of point charges in /Mol/           I                0
Number of translation vectors              I                0
Atomic numbers                             I   N=          22
           6           6           6           6           6           6
           7           8           8           7           1           1
           1           1           6           6           1           1
           1           1           1           1
Nuclear charges                            R   N=          22
  6.00000000E+00  6.00000000E+00  6.00000000E+00  6.00000000E+00  6.00000000E+00
  6.00000000E+00  7.00000000E+00  8.00000000E+00  8.00000000E+00  7.00000000E+00
  1.00000000E+00  1.00000000E+00  1.00000000E+00  1.00000000E+00  6.00000000E+00
  6.00000000E+00  1.00000000E+00  1.00000000E+00  1.00000000E+00  1.00000000E+00
  1.00000000E+00  1.00000000E+00
Current cartesian coordinates              R   N=          66
  1.45328153E+00  2.91590236E+00 -1.42250646E-04  2.87893665E+00  6.61923530E-01
  1.58010946E-01  1.71048878E+00 -1.66678403E+00  1.56143711E-01 -9.05627283E-01
 -1.81599334E+00 -2.66884547E-03 -2.36109960E+00  3.63199169E-01 -1.59442033E-01
 -1.20469434E+00  2.69798567E+00 -1.58826509E-01 -2.12925436E+00 -4.27100895E+00
 -3.25515889E-03 -7.88678300E-01 -6.13682466E+00  1.33729320E-01 -4.42605783E+00
 -4.32415697E+00 -1.40920423E-01  2.60345690E+00  5.22316088E+00 -2.60961729E-04
  4.91802038E+00  7.36891695E-01  2.83184782E-01  2.79765871E+00 -3.39584411E+00
  2.76983737E-01 -4.39633407E+00  1.91021501E-01 -2.80091991E-01 -2.37204351E+00
  4.37165184E+00 -2.82448363E-01  5.32257560E+00  5.40177136E+00  1.64755235E-01
  1.10920150E+00  7.50214040E+00 -1.60201194E-01  6.25470731E+00  4.45880501E+00
 -1.42884146E+00  6.04531621E+00  4.56964988E+00  1.92069018E+00  5.87039915E+00
  7.38523266E+00  1.32951712E-01 -1.96684635E-01  7.68197744E+00  1.43995760E+00
  7.31492952E-04  7.57489146E+00 -1.91050967E+00  2.36386567E+00  9.13327447E+00
 -1.38798367E-01
Number of symbols in /Mol/                 I                0
Force Field                                I                0
Atom Types                                 C   N=          22
                                                            
                                                            
                                                            
                                                            
                        
Int Atom Types                             I   N=          22
           0           0           0           0           0           0
           0           0           0           0           0           0
           0           0           0           0           0           0
           0           0           0           0
MM charges                                 R   N=          22
  0.00000000E+00  0.00000000E+00  0.00000000E+00  0.00000000E+00  0.00000000E+00
  0.00000000E+00  0.00000000E+00  0.00000000E+00  0.00000000E+00  0.00000000E+00
  0.00000000E+00  0.00000000E+00  0.00000000E+00  0.00000000E+00  0.00000000E+00
  0.00000000E+00  0.00000000E+00  0.00000000E+00  0.00000000E+00  0.00000000E+00
  0.00000000E+00  0.00000000E+00
Integer atomic weights                     I   N=          22
          12          12          12          12          12          12
          14          16          16          14           1           1
           1           1          12          12           1           1
           1           1           1           1
Real atomic weights                        R   N=          22
  1.20000000E+01  1.20000000E+01  1.20000000E+01  1.20000000E+01  1.20000000E+01
  1.20000000E+01  1.40030740E+01  1.59949146E+01  1.59949146E+01  1.40030740E+01
  1.00782504E+00  1.00782504E+00  1.00782504E+00  1.00782504E+00  1.20000000E+01
  1.20000000E+01  1.00782504E+00  1.00782504E+00  1.00782504E+00  1.00782504E+00
  1.00782504E+00  1.00782504E+00
Atom fragment info                         I   N=          22
           0           0           0           0           0           0
           0           0           0           0           0           0
           0           0           0           0           0           0
           0           0           0           0
Atom residue num                           I   N=          22
           0           0           0           0           0           0
           0           0           0           0           0           0
           0           0           0           0           0           0
           0           0           0           0
Nuclear spins                              I   N=          22
           0           0           0           0           0           0
           2           0           0           2           1           1
           1           1           0           0           1           1
           1           1           1           1
Nuclear ZEff                               R   N=          22
 -3.60000000E+00 -3.60000000E+00 -3.60000000E+00 -3.60000000E+00 -3.60000000E+00
 -3.60000000E+00 -4.55000000E+00 -5.60000000E+00 -5.60000000E+00 -4.55000000E+00
 -1.00000000E+00 -1.00000000E+00 -1.00000000E+00 -1.00000000E+00 -3.60000000E+00
 -3.60000000E+00 -1.00000000E+00 -1.00000000E+00 -1.00000000E+00 -1.00000000E+00
 -1.00000000E+00 -1.00000000E+00
Nuclear ZNuc                               R   N=          22
  6.00000000E+00  6.00000000E+00  6.00000000E+00  6.00000000E+00  6.00000000E+00
  6.00000000E+00  7.00000000E+00  8.00000000E+00  8.00000000E+00  7.00000000E+00
  1.00000000E+00  1.00000000E+00  1.00000000E+00  1.00000000E+00  6.00000000E+00
  6.00000000E+00  1.00000000E+00  1.00000000E+00  1.00000000E+00  1.00000000E+00
  1.00000000E+00  1.00000000E+00
Nuclear QMom                               R   N=          22
  0.00000000E+00  0.00000000E+00  0.00000000E+00  0.00000000E+00  0.00000000E+00
  0.00000000E+00  2.04400000E+00  0.00000000E+00  0.00000000E+00  2.04400000E+00
  0.00000000E+00  0.00000000E+00  0.00000000E+00  0.00000000E+00  0.00000000E+00
  0.00000000E+00  0.00000000E+00  0.00000000E+00  0.00000000E+00  0.00000000E+00
  0.00000000E+00  0.00000000E+00
Nuclear GFac                               R   N=          22
  0.00000000E+00  0.00000000E+00  0.00000000E+00  0.00000000E+00  0.00000000E+00
  0.00000000E+00  4.03761000E-01  0.00000000E+00  0.00000000E+00  4.03761000E-01
  2.79284600E+00  2.79284600E+00  2.79284600E+00  2.79284600E+00  0.00000000E+00
  0.00000000E+00  2.79284600E+00  2.79284600E+00  2.79284600E+00  2.79284600E+00
  2.79284600E+00  2.79284600E+00
MicOpt                                     I   N=          22
          -1          -1          -1          -1          -1          -1
          -1          -1          -1          -1          -1          -1
          -1          -1          -1          -1          -1          -1
          -1          -1          -1          -1
Number of residues                         I                0
Number of secondary structures             I                0
Number of contracted shells                I               56
Number of primitive shells                 I              160
Pure/Cartesian d shells                    I                1
Pure/Cartesian f shells                    I                0
Highest angular momentum                   I                1
Largest degree of contraction              I                6
Shell types                                I   N=          56
           0          -1          -1           0          -1          -1
           0          -1          -1           0          -1          -1
           0          -1          -1           0          -1          -1
           0          -1          -1           0          -1          -1
           0          -1          -1           0          -1          -1
           0           0           0           0           0           0
           0           0           0          -1          -1           0
          -1          -1           0           0           0           0
           0           0           0           0           0           0
           0           0
Number of primitives per shell             I   N=          56
           6           3           1           6           3           1
           6           3           1           6           3           1
           6           3           1           6           3           1
           6           3           1           6           3           1
           6           3           1           6           3           1
           3           1           3           1           3           1
           3           1           6           3           1           6
           3           1           3           1           3           1
           3           1           3           1           3           1
           3           1
Shell to atom map                          I   N=          56
           1           1           1           2           2           2
           3           3           3           4           4           4
           5           5           5           6           6           6
           7           7           7           8           8           8
           9           9           9          10          10          10
          11          11          12          12          13          13
          14          14          15          15          15          16
          16          16          17          17          18          18
          19          19          20          20          21          21
          22          22
Primitive exponents                        R   N=         160
  3.04752488E+03  4.57369518E+02  1.03948685E+02  2.92101553E+01  9.28666296E+00
  3.16392696E+00  7.86827235E+00  1.88128854E+00  5.44249258E-01  1.68714478E-01
  3.04752488E+03  4.57369518E+02  1.03948685E+02  2.92101553E+01  9.28666296E+00
  3.16392696E+00  7.86827235E+00  1.88128854E+00  5.44249258E-01  1.68714478E-01
  3.04752488E+03  4.57369518E+02  1.03948685E+02  2.92101553E+01  9.28666296E+00
  3.16392696E+00  7.86827235E+00  1.88128854E+00  5.44249258E-01  1.68714478E-01
  3.04752488E+03  4.57369518E+02  1.03948685E+02  2.92101553E+01  9.28666296E+00
  3.16392696E+00  7.86827235E+00  1.88128854E+00  5.44249258E-01  1.68714478E-01
  3.04752488E+03  4.57369518E+02  1.03948685E+02  2.92101553E+01  9.28666296E+00
  3.16392696E+00  7.86827235E+00  1.88128854E+00  5.44249258E-01  1.68714478E-01
  3.04752488E+03  4.57369518E+02  1.03948685E+02  2.92101553E+01  9.28666296E+00
  3.16392696E+00  7.86827235E+00  1.88128854E+00  5.44249258E-01  1.68714478E-01
  4.17351146E+03  6.27457911E+02  1.42902093E+02  4.02343293E+01  1.28202129E+01
  4.39043701E+00  1.16263619E+01  2.71627981E+00  7.72218397E-01  2.12031498E-01
  5.48467166E+03  8.25234946E+02  1.88046958E+02  5.29645000E+01  1.68975704E+01
  5.79963534E+00  1.55396162E+01  3.59993359E+00  1.01376175E+00  2.70005823E-01
  5.48467166E+03  8.25234946E+02  1.88046958E+02  5.29645000E+01  1.68975704E+01
  5.79963534E+00  1.55396162E+01  3.59993359E+00  1.01376175E+00  2.70005823E-01
  4.17351146E+03  6.27457911E+02  1.42902093E+02  4.02343293E+01  1.28202129E+01
  4.39043701E+00  1.16263619E+01  2.71627981E+00  7.72218397E-01  2.12031498E-01
  1.87311370E+01  2.82539436E+00  6.40121692E-01  1.61277759E-01  1.87311370E+01
  2.82539436E+00  6.40121692E-01  1.61277759E-01  1.87311370E+01  2.82539436E+00
  6.40121692E-01  1.61277759E-01  1.87311370E+01  2.82539436E+00  6.40121692E-01
  1.61277759E-01  3.04752488E+03  4.57369518E+02  1.03948685E+02  2.92101553E+01
  9.28666296E+00  3.16392696E+00  7.86827235E+00  1.88128854E+00  5.44249258E-01
  1.68714478E-01  3.04752488E+03  4.57369518E+02  1.03948685E+02  2.92101553E+01
  9.28666296E+00  3.16392696E+00  7.86827235E+00  1.88128854E+00  5.44249258E-01
  1.68714478E-01  1.87311370E+01  2.82539436E+00  6.40121692E-01  1.61277759E-01
  1.87311370E+01  2.82539436E+00  6.40121692E-01  1.61277759E-01  1.87311370E+01
  2.82539436E+00  6.40121692E-01  1.61277759E-01  1.87311370E+01  2.82539436E+00
  6.40121692E-01  1.61277759E-01  1.87311370E+01  2.82539436E+00  6.40121692E-01
  1.61277759E-01  1.87311370E+01  2.82539436E+00  6.40121692E-01  1.61277759E-01
Contraction coefficients                   R   N=         160
  1.83473713E-03  1.40373228E-02  6.88426223E-02  2.32184443E-01  4.67941348E-01
  3.62311985E-01 -1.19332420E-01 -1.60854152E-01  1.14345644E+00  1.00000000E+00
  1.83473713E-03  1.40373228E-02  6.88426223E-02  2.32184443E-01  4.67941348E-01
  3.62311985E-01 -1.19332420E-01 -1.60854152E-01  1.14345644E+00  1.00000000E+00
  1.83473713E-03  1.40373228E-02  6.88426223E-02  2.32184443E-01  4.67941348E-01
  3.62311985E-01 -1.19332420E-01 -1.60854152E-01  1.14345644E+00  1.00000000E+00
  1.83473713E-03  1.40373228E-02  6.88426223E-02  2.32184443E-01  4.67941348E-01
  3.62311985E-01 -1.19332420E-01 -1.60854152E-01  1.14345644E+00  1.00000000E+00
  1.83473713E-03  1.40373228E-02  6.88426223E-02  2.32184443E-01  4.67941348E-01
  3.62311985E-01 -1.19332420E-01 -1.60854152E-01  1.14345644E+00  1.00000000E+00
  1.83473713E-03  1.40373228E-02  6.88426223E-02  2.32184443E-01  4.67941348E-01
  3.62311985E-01 -1.19332420E-01 -1.60854152E-01  1.14345644E+00  1.00000000E+00
  1.83477216E-03  1.39946270E-02  6.85865518E-02  2.32240873E-01  4.69069948E-01
  3.60455199E-01 -1.14961182E-01 -1.69117479E-01  1.14585195E+00  1.00000000E+00
  1.83107443E-03  1.39501722E-02  6.84450781E-02  2.32714336E-01  4.70192898E-01
  3.58520853E-01 -1.10777550E-01 -1.48026263E-01  1.13076702E+00  1.00000000E+00
  1.83107443E-03  1.39501722E-02  6.84450781E-02  2.32714336E-01  4.70192898E-01
  3.58520853E-01 -1.10777550E-01 -1.48026263E-01  1.13076702E+00  1.00000000E+00
  1.83477216E-03  1.39946270E-02  6.85865518E-02  2.32240873E-01  4.69069948E-01
  3.60455199E-01 -1.14961182E-01 -1.69117479E-01  1.14585195E+00  1.00000000E+00
  3.34946043E-02  2.34726953E-01  8.13757326E-01  1.00000000E+00  3.34946043E-02
  2.34726953E-01  8.13757326E-01  1.00000000E+00  3.34946043E-02  2.34726953E-01
  8.13757326E-01  1.00000000E+00  3.34946043E-02  2.34726953E-01  8.13757326E-01
  1.00000000E+00  1.83473713E-03  1.40373228E-02  6.88426223E-02  2.32184443E-01
  4.67941348E-01  3.62311985E-01 -1.19332420E-01 -1.60854152E-01  1.14345644E+00
  1.00000000E+00  1.83473713E-03  1.40373228E-02  6.88426223E-02  2.32184443E-01
  4.67941348E-01  3.62311985E-01 -1.19332420E-01 -1.60854152E-01  1.14345644E+00
  1.00000000E+00  3.34946043E-02  2.34726953E-01  8.13757326E-01  1.00000000E+00
  3.34946043E-02  2.34726953E-01  8.13757326E-01  1.00000000E+00  3.34946043E-02
  2.34726953E-01  8.13757326E-01  1.00000000E+00  3.34946043E-02  2.34726953E-01
  8.13757326E-01  1.00000000E+00  3.34946043E-02  2.34726953E-01  8.13757326E-01
  1.00000000E+00  3.34946043E-02  2.34726953E-01  8.13757326E-01  1.00000000E+00
P(S=P) Contraction coefficients            R   N=         160
  0.00000000E+00  0.00000000E+00  0.00000000E+00  0.00000000E+00  0.00000000E+00
  0.00000000E+00  6.89990666E-02  3.16423961E-01  7.44308291E-01  1.00000000E+00
  0.00000000E+00  0.00000000E+00  0.00000000E+00  0.00000000E+00  0.00000000E+00
  0.00000000E+00  6.89990666E-02  3.16423961E-01  7.44308291E-01  1.00000000E+00
  0.00000000E+00  0.00000000E+00  0.00000000E+00  0.00000000E+00  0.00000000E+00
  0.00000000E+00  6.89990666E-02  3.16423961E-01  7.44308291E-01  1.00000000E+00
  0.00000000E+00  0.00000000E+00  0.00000000E+00  0.00000000E+00  0.00000000E+00
  0.00000000E+00  6.89990666E-02  3.16423961E-01  7.44308291E-01  1.00000000E+00
  0.00000000E+00  0.00000000E+00  0.00000000E+00  0.00000000E+00  0.00000000E+00
  0.00000000E+00  6.89990666E-02  3.16423961E-01  7.44308291E-01  1.00000000E+00
  0.00000000E+00  0.00000000E+00  0.00000000E+00  0.00000000E+00  0.00000000E+00
  0.00000000E+00  6.89990666E-02  3.16423961E-01  7.44308291E-01  1.00000000E+00
  0.00000000E+00  0.00000000E+00  0.00000000E+00  0.00000000E+00  0.00000000E+00
  0.00000000E+00  6.75797439E-02  3.23907296E-01  7.40895140E-01  1.00000000E+00
  0.00000000E+00  0.00000000E+00  0.00000000E+00  0.00000000E+00  0.00000000E+00
  0.00000000E+00  7.08742682E-02  3.39752839E-01  7.27158577E-01  1.00000000E+00
  0.00000000E+00  0.00000000E+00  0.00000000E+00  0.00000000E+00  0.00000000E+00
  0.00000000E+00  7.08742682E-02  3.39752839E-01  7.27158577E-01  1.00000000E+00
  0.00000000E+00  0.00000000E+00  0.00000000E+00  0.00000000E+00  0.00000000E+00
  0.00000000E+00  6.75797439E-02  3.23907296E-01  7.40895140E-01  1.00000000E+00
  0.00000000E+00  0.00000000E+00  0.00000000E+00  0.00000000E+00  0.00000000E+00
  0.00000000E+00  0.00000000E+00  0.00000000E+00  0.00000000E+00  0.00000000E+00
  0.00000000E+00  0.00000000E+00  0.00000000E+00  0.00000000E+00  0.00000000E+00
  0.00000000E+00  0.00000000E+00  0.00000000E+00  0.00000000E+00  0.00000000E+00
  0.00000000E+00  0.00000000E+00  6.89990666E-02  3.16423961E-01  7.44308291E-01
  1.00000000E+00  0.00000000E+00  0.00000000E+00  0.00000000E+00  0.00000000E+00
  0.00000000E+00  0.00000000E+00  6.89990666E-02  3.16423961E-01  7.44308291E-01
  1.00000000E+00  0.00000000E+00  0.00000000E+00  0.00000000E+00  0.00000000E+00
  0.00000000E+00  0.00000000E+00  0.00000000E+00  0.00000000E+00  0.00000000E+00
  0.00000000E+00  0.00000000E+00  0.00000000E+00  0.00000000E+00  0.00000000E+00
  0.00000000E+00  0.00000000E+00  0.00000000E+00  0.00000000E+00  0.00000000E+00
  0.00000000E+00  0.00000000E+00  0.00000000E+00  0.00000000E+00  0.00000000E+00
Coordinates of each shell                  R   N=         168
  1.45328153E+00  2.91590236E+00 -1.42250646E-04  1.45328153E+00  2.91590236E+00
 -1.42250646E-04  1.45328153E+00  2.91590236E+00 -1.42250646E-04  2.87893665E+00
  6.61923530E-01  1.58010946E-01  2.87893665E+00  6.61923530E-01  1.58010946E-01
  2.87893665E+00  6.61923530E-01  1.58010946E-01  1.71048878E+00 -1.66678403E+00
  1.56143711E-01  1.71048878E+00 -1.66678403E+00  1.56143711E-01  1.71048878E+00
 -1.66678403E+00  1.56143711E-01 -9.05627283E-01 -1.81599334E+00 -2.66884547E-03
 -9.05627283E-01 -1.81599334E+00 -2.66884547E-03 -9.05627283E-01 -1.81599334E+00
 -2.66884547E-03 -2.36109960E+00  3.63199169E-01 -1.59442033E-01 -2.36109960E+00
  3.63199169E-01 -1.59442033E-01 -2.36109960E+00  3.63199169E-01 -1.59442033E-01
 -1.20469434E+00  2.69798567E+00 -1.58826509E-01 -1.20469434E+00  2.69798567E+00
 -1.58826509E-01 -1.20469434E+00  2.69798567E+00 -1.58826509E-01 -2.12925436E+00
 -4.27100895E+00 -3.25515889E-03 -2.12925436E+00 -4.27100895E+00 -3.25515889E-03
 -2.12925436E+00 -4.27100895E+00 -3.25515889E-03 -7.88678300E-01 -6.13682466E+00
  1.33729320E-01 -7.88678300E-01 -6.13682466E+00  1.33729320E-01 -7.88678300E-01
 -6.13682466E+00  1.33729320E-01 -4.42605783E+00 -4.32415697E+00 -1.40920423E-01
 -4.42605783E+00 -4.32415697E+00 -1.40920423E-01 -4.42605783E+00 -4.32415697E+00
 -1.40920423E-01  2.60345690E+00  5.22316088E+00 -2.60961729E-04  2.60345690E+00
  5.22316088E+00 -2.60961729E-04  2.60345690E+00  5.22316088E+00 -2.60961729E-04
  4.91802038E+00  7.36891695E-01  2.83184782E-01  4.91802038E+00  7.36891695E-01
  2.83184782E-01  2.79765871E+00 -3.39584411E+00  2.76983737E-01  2.79765871E+00
 -3.39584411E+00  2.76983737E-01 -4.39633407E+00  1.91021501E-01 -2.80091991E-01
 -4.39633407E+00  1.91021501E-01 -2.80091991E-01 -2.37204351E+00  4.37165184E+00
 -2.82448363E-01 -2.37204351E+00  4.37165184E+00 -2.82448363E-01  5.32257560E+00
  5.40177136E+00  1.64755235E-01  5.32257560E+00  5.40177136E+00  1.64755235E-01
  5.32257560E+00  5.40177136E+00  1.64755235E-01  1.10920150E+00  7.50214040E+00
 -1.60201194E-01  1.10920150E+00  7.50214040E+00 -1.60201194E-01  1.10920150E+00
  7.50214040E+00 -1.60201194E-01  6.25470731E+00  4.45880501E+00 -1.42884146E+00
  6.25470731E+00  4.45880501E+00 -1.42884146E+00  6.04531621E+00  4.56964988E+00
  1.92069018E+00  6.04531621E+00  4.56964988E+00  1.92069018E+00  5.87039915E+00
  7.38523266E+00  1.32951712E-01  5.87039915E+00  7.38523266E+00  1.32951712E-01
 -1.96684635E-01  7.68197744E+00  1.43995760E+00 -1.96684635E-01  7.68197744E+00
  1.43995760E+00  7.31492952E-04  7.57489146E+00 -1.91050967E+00  7.31492952E-04
  7.57489146E+00 -1.91050967E+00  2.36386567E+00  9.13327447E+00 -1.38798367E-01
  2.36386567E+00  9.13327447E+00 -1.38798367E-01
Num ILSW                                   I              100
ILSW                                       I   N=         100
           0           1           0           0           2           0
           0           0           0           0           0          -1
           5           0           0           0           0           0
           0           0           0           0           0           0
           1           1           0           0           0           0
           0           0      100000           0          -1           0
           0           0           0           0           0           0
           0           0           0           1           0           0
           0 -2000000000           1           0           0           0
           0           0           4          52           0           0
           0           0           0           0           0           0
           0           0           0          22           0           1
           0           0           0           0           0           0
           0           0           0           0           0           0
           0           0           0           0           0           0
           0           0           0           0           0           0
           0           0           0           0
Num RLSW                                   I               52
RLSW                                       R   N=          52
  1.00000000E+00  1.00000000E+00  1.00000000E+00  1.00000000E+00  1.00000000E+00
  0.00000000E+00  0.00000000E+00  1.00000000E+00  0.00000000E+00  0.00000000E+00
  0.00000000E+00  0.00000000E+00  1.00000000E+00  0.00000000E+00  0.00000000E+00
  0.00000000E+00  0.00000000E+00  1.00000000E+00  0.00000000E+00  0.00000000E+00
  0.00000000E+00  0.00000000E+00  1.00000000E+00  0.00000000E+00  0.00000000E+00
  0.00000000E+00  0.00000000E+00  1.00000000E+00  0.00000000E+00  0.00000000E+00
  0.00000000E+00  0.00000000E+00  1.00000000E+00  0.00000000E+00  0.00000000E+00
  0.00000000E+00  0.00000000E+00  0.00000000E+00  1.00000000E+00  1.00000000E+00
  0.00000000E+00  1.00000000E+00  0.00000000E+00  0.00000000E+00  0.00000000E+00
  0.00000000E+00  0.00000000E+00  0.00000000E+00  0.00000000E+00  0.00000000E+00
  0.00000000E+00  0.00000000E+00
MxBond                                     I                4
NBond                                      I   N=          22
           3           3           3           3           3           3
           3           1           1           3           1           1
           1           1           4           4           1           1
           1           1           1           1
IBond                                      I   N=          88
           2           6          10           0           1           3
          11           0           2           4          12           0
           3           5           7           0           4           6
          13           0           1           5          14           0
           4           8           9           0           7           0
           0           0           7           0           0           0
           1          15          16           0           2           0
           0           0           3           0           0           0
           5           0           0           0           6           0
           0           0          10          17          18          19
          10          20          21          22          15           0
           0           0          15           0           0           0
          15           0           0           0          16           0
           0           0          16           0           0           0
          16           0           0           0
RBond                                      R   N=          88
  1.50000000E+00  1.50000000E+00  1.50000000E+00  0.00000000E+00  1.50000000E+00
  1.50000000E+00  1.00000000E+00  0.00000000E+00  1.50000000E+00  1.50000000E+00
  1.00000000E+00  0.00000000E+00  1.50000000E+00  1.50000000E+00  1.00000000E+00
  0.00000000E+00  1.50000000E+00  1.50000000E+00  1.00000000E+00  0.00000000E+00
  1.50000000E+00  1.50000000E+00  1.00000000E+00  0.00000000E+00  1.00000000E+00
  2.00000000E+00  2.00000000E+00  0.00000000E+00  2.00000000E+00  0.00000000E+00
  0.00000000E+00  0.00000000E+00  2.00000000E+00  0.00000000E+00  0.00000000E+00
  0.00000000E+00  1.50000000E+00  1.00000000E+00  1.00000000E+00  0.00000000E+00
  1.00000000E+00  0.00000000E+00  0.00000000E+00  0.00000000E+00  1.00000000E+00
  0.00000000E+00  0.00000000E+00  0.00000000E+00  1.00000000E+00  0.00000000E+00
  0.00000000E+00  0.00000000E+00  1.00000000E+00  0.00000000E+00  0.00000000E+00
  0.00000000E+00  1.00000000E+00  1.00000000E+00  1.00000000E+00  1.00000000E+00
  1.00000000E+00  1.00000000E+00  1.00000000E+00  1.00000000E+00  1.00000000E+00
  0.00000000E+00  0.00000000E+00  0.00000000E+00  1.00000000E+00  0.00000000E+00
  0.00000000E+00  0.00000000E+00  1.00000000E+00  0.00000000E+00  0.00000000E+00
  0.00000000E+00  1.00000000E+00  0.00000000E+00  0.00000000E+00  0.00000000E+00
  1.00000000E+00  0.00000000E+00  0.00000000E+00  0.00000000E+00  1.00000000E+00
  0.00000000E+00  0.00000000E+00  0.00000000E+00
Virial Ratio                               R      1.999212106608840E+00
SCF Energy                                 R     -5.670021162624096E+02
CIS Energy                                 R     -5.668208659736734E+02
Total Energy                               R     -5.668208659736734E+02
Post-SCF wavefunction norm                 R      1.000000000000000E+00
RMS Density                                R      3.028791183895600E-10
Job Status                                 I                1
Nuclear derivative order                   I                0
External E-field                           R   N=          35
  0.00000000E+00  0.00000000E+00  0.00000000E+00  0.00000000E+00  0.00000000E+00
  0.00000000E+00  0.00000000E+00  0.00000000E+00  0.00000000E+00  0.00000000E+00
  0.00000000E+00  0.00000000E+00  0.00000000E+00  0.00000000E+00  0.00000000E+00
  0.00000000E+00  0.00000000E+00  0.00000000E+00  0.00000000E+00  0.00000000E+00
  0.00000000E+00  0.00000000E+00  0.00000000E+00  0.00000000E+00  0.00000000E+00
  0.00000000E+00  0.00000000E+00  0.00000000E+00  0.00000000E+00  0.00000000E+00
  0.00000000E+00  0.00000000E+00  0.00000000E+00  0.00000000E+00  0.00000000E+00
IOpCl                                      I                0
IROHF                                      I                0
Alpha Orbital Energies                     R   N=         128
 -2.05952845E+01 -2.05952053E+01 -1.58394706E+01 -1.56041908E+01 -1.13233626E+01
 -1.12931390E+01 -1.12834344E+01 -1.12834022E+01 -1.12763826E+01 -1.12763195E+01
 -1.12529675E+01 -1.12529523E+01 -1.62731647E+00 -1.40942461E+00 -1.29688685E+00
 -1.19075559E+00 -1.08584766E+00 -1.05387954E+00 -1.00190165E+00 -9.79063454E-01
 -8.89635609E-01 -8.59738189E-01 -8.01017183E-01 -7.74423302E-01 -7.23425033E-01
 -7.21232536E-01 -7.13036107E-01 -6.76784118E-01 -6.65562860E-01 -6.49234642E-01
 -6.20283576E-01 -6.05441775E-01 -5.99818441E-01 -5.83956698E-01 -5.63185269E-01
 -5.55715304E-01 -5.34097019E-01 -5.06259389E-01 -4.77977896E-01 -4.76921595E-01
 -4.38003661E-01 -4.31379839E-01 -3.67961965E-01 -3.08480215E-01  5.95256609E-02
  1.22690912E-01  1.80317634E-01  2.08234177E-01  2.38744841E-01  2.50934350E-01
  2.52758538E-01  2.96444107E-01  3.03296982E-01  3.08086217E-01  3.09005232E-01
  3.15011749E-01  3.32519520E-01  3.60387859E-01  3.61300943E-01  3.91430764E-01
  4.05372804E-01  4.31824144E-01  4.83113012E-01  4.96991180E-01  4.98695080E-01
  5.10313594E-01  5.93794904E-01  6.08237459E-01  6.84417662E-01  7.00386725E-01
  7.25392782E-01  7.29836101E-01  7.43762619E-01  7.77305848E-01  7.82495930E-01
  8.14941680E-01  8.20805553E-01  8.27484612E-01  8.35089239E-01  8.56741428E-01
  8.63026730E-01  8.72240504E-01  8.81411023E-01  9.04921279E-01  9.24671496E-01
  9.84367982E-01  9.87065870E-01  9.87786860E-01  9.91623623E-01  1.02839220E+00
  1.05924400E+00  1.09286849E+00  1.10373073E+00  1.11159509E+00  1.12712345E+00
  1.13826564E+00  1.16084871E+00  1.16714369E+00  1.17903414E+00  1.18454139E+00
  1.20088258E+00  1.22766103E+00  1.23510047E+00  1.25448760E+00  1.26039387E+00
  1.26685777E+00  1.27460878E+00  1.29735675E+00  1.31281867E+00  1.31748914E+00