C3                                                                      
SP        UHF-FC                                                      3-21G               
Number of atoms                            I                2
Info1-9                                    I   N=           9
          12          12           0           0           0         110
           1         301           1
Full Title                                 C   N=           1
C3          
Route                                      C   N=           4
#P CIS/3-21G td=(nstates=3) nosym density=(all) 
Charge                                     I                0
Multiplicity                               I                3
Number of electrons                        I                2
Number of alpha electrons                  I                2
Number of beta electrons                   I                0
Number of basis functions                  I                4
Number of independent functions            I                4
Number of point charges in /Mol/           I                0
Number of translation vectors              I                0
Atomic numbers                             I   N=           2
           1           1
Nuclear charges                            R   N=           2
  1.00000000E+00  1.00000000E+00
Current cartesian coordinates              R   N=           6
  0.00000000E+00  0.00000000E+00  0.00000000E+00  3.77945225E+00  3.77945225E+00
  3.77945225E+00
Number of symbols in /Mol/                 I                0
Force Field                                I                0
Atom Types                                 C   N=           2
                        
Int Atom Types                             I   N=           2
           0           0
MM charges                                 R   N=           2
  0.00000000E+00  0.00000000E+00
Integer atomic weights                     I   N=           2
           1           1
Real atomic weights                        R   N=           2
  1.00782504E+00  1.00782504E+00
Atom fragment info                         I   N=           2
           0           0
Atom residue num                           I   N=           2
           0           0
Nuclear spins                              I   N=           2
           1           1
Nuclear ZEff                               R   N=           2
 -1.00000000E+00 -1.00000000E+00
Nuclear ZNuc                               R   N=           2
  1.00000000E+00  1.00000000E+00
Nuclear QMom                               R   N=           2
  0.00000000E+00  0.00000000E+00
Nuclear GFac                               R   N=           2
  2.79284600E+00  2.79284600E+00
MicOpt                                     I   N=           2
          -1          -1
Number of residues                         I                0
Number of secondary structures             I                0
Number of contracted shells                I                4
Number of primitive shells                 I                6
Pure/Cartesian d shells                    I                1
Pure/Cartesian f shells                    I                0
Highest angular momentum                   I                0
Largest degree of contraction              I                2
Shell types                                I   N=           4
           0           0           0           0
Number of primitives per shell             I   N=           4
           2           1           2           1
Shell to atom map                          I   N=           4
           1           1           2           2
Primitive exponents                        R   N=           6
  5.44717800E+00  8.24547240E-01  1.83191580E-01  5.44717800E+00  8.24547240E-01
  1.83191580E-01
Contraction coefficients                   R   N=           6
  1.56284979E-01  9.04690877E-01  1.00000000E+00  1.56284979E-01  9.04690877E-01
  1.00000000E+00
Coordinates of each shell                  R   N=          12
  0.00000000E+00  0.00000000E+00  0.00000000E+00  0.00000000E+00  0.00000000E+00
  0.00000000E+00  3.77945225E+00  3.77945225E+00  3.77945225E+00  3.77945225E+00
  3.77945225E+00  3.77945225E+00
Num ILSW                                   I              100
ILSW                                       I   N=         100
           1           1           0           0           2           0
           0           0           0           0           0          -1
           5           0           0           0           0           0
           0           0           0           0           0           0
           1           1           0           0           0           0
           0           0      100000           0          -1           0
           0           0           0           0           0           0
           0           0           0           1           0           0
           0 -2000000000           1           0           0           0
           0           0           4          52           0           0
           0           0           0           0           0           0
           0           0           0           2           0           1
           0           0           0           0           0           0
           0           0           0           0           0           0
           0           0           0           0           0           0
           0           0           0           0           0           0
           0           0           0           0
Num RLSW                                   I               52
RLSW                                       R   N=          52
  1.00000000E+00  1.00000000E+00  1.00000000E+00  1.00000000E+00  1.00000000E+00
  0.00000000E+00  0.00000000E+00  1.00000000E+00  0.00000000E+00  0.00000000E+00
  0.00000000E+00  0.00000000E+00  1.00000000E+00  0.00000000E+00  0.00000000E+00
  0.00000000E+00  0.00000000E+00  1.00000000E+00  0.00000000E+00  0.00000000E+00
  0.00000000E+00  0.00000000E+00  1.00000000E+00  0.00000000E+00  0.00000000E+00
  0.00000000E+00  0.00000000E+00  1.00000000E+00  0.00000000E+00  0.00000000E+00
  0.00000000E+00  0.00000000E+00  1.00000000E+00  0.00000000E+00  0.00000000E+00
  0.00000000E+00  0.00000000E+00  0.00000000E+00  1.00000000E+00  1.00000000E+00
  0.00000000E+00  1.00000000E+00  0.00000000E+00  0.00000000E+00  0.00000000E+00
  0.00000000E+00  0.00000000E+00  0.00000000E+00  0.00000000E+00  0.00000000E+00
  0.00000000E+00  0.00000000E+00
MxBond                                     I                1
NBond                                      I   N=           2
           0           0
IBond                                      I   N=           2
           0           0
RBond                                      R   N=           2
  0.00000000E+00  0.00000000E+00
Virial Ratio                               R      1.964135741824982E+00
SCF Energy                                 R     -9.923451332541462E-01
CIS Energy                                 R      8.797957552197944E-02
Total Energy                               R      8.797957552197944E-02
Post-SCF wavefunction norm                 R      1.000000000000000E+00
S**2                                       R      2.000000000000000E+00
S**2 after annihilation                    R      2.000000000000000E+00
RMS Density                                R      1.580331545106848E-11
Job Status                                 I                1
Nuclear derivative order                   I                0
External E-field                           R   N=          35
  0.00000000E+00  0.00000000E+00  0.00000000E+00  0.00000000E+00  0.00000000E+00
  0.00000000E+00  0.00000000E+00  0.00000000E+00  0.00000000E+00  0.00000000E+00
  0.00000000E+00  0.00000000E+00  0.00000000E+00  0.00000000E+00  0.00000000E+00
  0.00000000E+00  0.00000000E+00  0.00000000E+00  0.00000000E+00  0.00000000E+00
  0.00000000E+00  0.00000000E+00  0.00000000E+00  0.00000000E+00  0.00000000E+00
  0.00000000E+00  0.00000000E+00  0.00000000E+00  0.00000000E+00  0.00000000E+00
  0.00000000E+00  0.00000000E+00  0.00000000E+00  0.00000000E+00  0.00000000E+00
IOpCl                                      I                1
IROHF                                      I                0
Alpha Orbital Energies                     R   N=           4
 -5.01260983E-01 -4.91101669E-01  1.04166788E+00  1.09818760E+00
Beta Orbital Energies                      R   N=           4
  1.04127955E-01  1.22977329E-01  1.23478495E+00  1.28304294E+00
Alpha MO coefficients                      R   N=          16
  2.60544295E-01  5.06332578E-01  2.60544295E-01  5.06332578E-01  2.67644908E-01
  5.08025383E-01 -2.67644908E-01 -5.08025383E-01  8.83253416E-01 -7.58440381E-01
  8.83253416E-01 -7.58440381E-01  8.92638539E-01 -7.92360563E-01 -8.92638539E-01
  7.92360563E-01
Beta MO coefficients                       R   N=          16
  1.08868429E-01  6.26254138E-01  1.08868429E-01  6.26254138E-01  1.23349854E-01
  6.26758278E-01 -1.23349854E-01 -6.26758278E-01  9.14421998E-01 -6.62880265E-01
  9.14421998E-01 -6.62880265E-01  9.23700260E-01 -7.02210163E-01 -9.23700260E-01
  7.02210163E-01
Orthonormal basis                          R   N=          16
  3.85469204E-01  3.91395070E-01  3.85469204E-01  3.91395070E-01  3.94000397E-01
  3.88016516E-01 -3.94000397E-01 -3.88016516E-01  8.36321361E-01 -8.23659147E-01
  8.36321361E-01 -8.23659147E-01 -8.44512312E-01  8.57536142E-01  8.44512312E-01
 -8.57536142E-01
Total SCF Density                          R   N=          10
  1.39517126E-01  2.67892471E-01  5.14462470E-01 -3.75046697E-03 -4.04834218E-03
  1.39517126E-01 -4.04834218E-03 -1.71711022E-03  2.67892471E-01  5.14462470E-01
Spin SCF Density                           R   N=          10
  1.39517126E-01  2.67892471E-01  5.14462470E-01 -3.75046697E-03 -4.04834218E-03
  1.39517126E-01 -4.04834218E-03 -1.71711022E-03  2.67892471E-01  5.14462470E-01
Total CI Rho(1) Density                    R   N=          10
  8.56224426E-01 -5.51373557E-01  8.53432558E-01  1.58282131E-01 -9.22164242E-02
  8.56224426E-01 -9.22164242E-02  1.41435822E-01 -5.51373557E-01  8.53432558E-01
Spin CI Rho(1) Density                     R   N=          10
  8.56224426E-01 -5.51373557E-01  8.53432558E-01  1.58282131E-01 -9.22164242E-02
  8.56224426E-01 -9.22164242E-02  1.41435822E-01 -5.51373557E-01  8.53432558E-01
Total CI Density                           R   N=          10
  8.56224426E-01 -5.51373557E-01  8.53432558E-01  1.58282131E-01 -9.22164242E-02
  8.56224426E-01 -9.22164242E-02  1.41435822E-01 -5.51373557E-01  8.53432558E-01
Spin CI Density                            R   N=          10
  8.56224426E-01 -5.51373557E-01  8.53432558E-01  1.58282131E-01 -9.22164242E-02
  8.56224426E-01 -9.22164242E-02  1.41435822E-01 -5.51373557E-01  8.53432558E-01
Mulliken Charges                           R   N=           2
  5.71591385E-16  4.44089210E-16
ONIOM Charges                              I   N=          16
           0           0           0           0           0           0
           0           0           0           0           0           0
           0           0           0           0
ONIOM Multiplicities                       I   N=          16
           3           0           0           0           0           0
           0           0           0           0           0           0
           0           0           0           0
Atom Layers                                I   N=           2
           1           1
Atom Modifiers                             I   N=           2
           0           0
Force Field                                I                0
Atom Modified Types                        C   N=           2
                        
Int Atom Modified Types                    I   N=           2
           0           0
Link Atoms                                 I   N=           2
           0           0
Atom Modified MM Charges                   R   N=           2
  0.00000000E+00  0.00000000E+00
Link Distances                             R   N=           8
  0.00000000E+00  0.00000000E+00  0.00000000E+00  0.00000000E+00  0.00000000E+00
  0.00000000E+00  0.00000000E+00  0.00000000E+00
Cartesian Gradient                         R   N=           6
  0.00000000E+00  0.00000000E+00  0.00000000E+00  0.00000000E+00  0.00000000E+00
  0.00000000E+00
Nonadiabatic coupling                      R   N=           6
  0.00000000E+00  0.00000000E+00  0.00000000E+00  0.00000000E+00  0.00000000E+00
  0.00000000E+00
Dipole Moment                              R   N=           3
  2.22044605E-15  2.22044605E-15  2.22044605E-15
Quadrupole Moment                          R   N=           6
  0.00000000E+00  0.00000000E+00  0.00000000E+00  1.91574269E-02  1.91574269E-02
  1.91574269E-02
Anisotropic Hyperfine tensors              R   N=          12
  0.00000000E+00  3.65441969E-03  0.00000000E+00  3.65441969E-03  3.65441969E-03
  0.00000000E+00  0.00000000E+00  3.65441969E-03  0.00000000E+00  3.65441969E-03
  3.65441969E-03  0.00000000E+00
Isotropic Hyperfine splittings             R   N=           2
  6.04810561E-01  6.04810561E-01
QEq coupling tensors                       R   N=          12
  0.00000000E+00  8.96495670E-05  0.00000000E+00  8.96495670E-05  8.96495670E-05
  0.00000000E+00  0.00000000E+00  8.96495670E-05  0.00000000E+00  8.96495670E-05
  8.96495670E-05  0.00000000E+00
ETran NETS                                 I               20
ETran NETV                                 I               48
ETran scalars                              I   N=          20
           3          16           1          10           1           0
           0           0           0           0           0           0
           0           0           0           0           0           0
           0           0
ETran spin                                 I   N=           3
          -1          -1          -1
ETran sym                                  I   N=           3
           0           0           0
ETran state values                         R   N=          48
  8.79795755E-02  4.38655045E-03  4.38655045E-03  4.38655045E-03 -1.11478288E-03
 -1.11478288E-03 -1.11478288E-03  0.00000000E+00  0.00000000E+00  0.00000000E+00
 -4.21326867E-03 -4.21326867E-03 -4.21326867E-03 -4.21326867E-03 -4.21326867E-03
 -4.21326867E-03  8.96255344E-02  7.85046229E-16  7.85046229E-16  7.85046229E-16
  7.79854210E-17  7.79854210E-17  7.79854210E-17  0.00000000E+00  0.00000000E+00
  0.00000000E+00 -7.77231795E-01 -7.77231795E-01 -7.77231795E-01  2.67505025E-04
  2.67505025E-04  2.67505025E-04  4.22578620E-01  6.10373443E-15  6.10373443E-15
  6.10373443E-15 -1.50986434E-15 -1.50986434E-15 -1.50986434E-15  0.00000000E+00
  0.00000000E+00  0.00000000E+00 -6.89404158E-02 -6.89404158E-02 -6.89404158E-02
 -5.16436262E-03 -5.16436262E-03 -5.16436262E-03
ClPar MaxAn                                I              200
ClPar NIntPar                              I                4
ClPar NRealPar                             I               16
ClPar NBits                                I               30
ClPar LenBitVec                            I                1
ClPar Read BitMap                          I   N=         200
           0           0           0           0           0           0
           0           0           0           0           0           0
           0           0           0           0           0           0
           0           0           0           0           0           0
           0           0           0           0           0           0
           0           0           0           0           0           0
           0           0           0           0           0           0
           0           0           0           0           0           0
           0           0           0           0           0           0
           0           0           0           0           0           0
           0           0           0           0           0           0
           0           0           0           0           0           0
           0           0           0           0           0           0
           0           0           0           0           0           0
           0           0           0           0           0           0
           0           0           0           0           0           0
           0           0           0           0           0           0
           0           0           0           0           0           0
           0           0           0           0           0           0
           0           0           0           0           0           0
           0           0           0           0           0           0
           0           0           0           0           0           0
           0           0           0           0           0           0
           0           0           0           0           0           0
           0           0           0           0           0           0
           0           0           0           0           0           0
           0           0           0           0           0           0
           0           0           0           0           0           0
           0           0           0           0           0           0
           0           0           0           0           0           0
           0           0           0           0           0           0
           0           0           0           0           0           0
           0           0           0           0           0           0
           0           0
ClPar Default BitMap                       I   N=         200
        2016        2016        2016        2016        2016        2016
        2016        2016        2016        2016        2016        2016
        2016        2016        2016        2016        2016        2016
        2016        2016        2016        2016        2016        2016
        2016        2016        2016        2016        2016        2016
        2016        2016        2016        2016        2016        2016
        2016        2016        2016        2016        2016        2016
        2016        2016        2016        2016        2016        2016
        2016        2016        2016        2016        2016        2016
        2016        2016        2016        2016        2016        2016
        2016        2016        2016        2016        2016        2016
        2016        2016        2016        2016        2016        2016
        2016        2016        2016        2016        2016        2016
        2016        2016        2016        2016        2016        2016
        2016        2016         480         480         480         480
         480         480         480         480         480         480
         480         480         480         480         480         480
         480         480         480         480         480         480
         480         480         480         480         480         480
         480         480         480         480         480         480
         480         480         480         480         480         480
         480         480         480         480         480         480
         480         480         480         480         480         480
         480         480         480         480         480         480
         480         480         480         480         480         480
         480         480         480         480         480         480
         480         480         480         480         480         480
         480         480         480         480         480         480
         480         480         480         480         480         480
         480         480         480         480         480         480
         480         480         480         480         480         480
         480         480         480         480         480         480
         480         480         480         480         480         480
         480         480
ClPar Int Params                           I   N=         800
           0           0           0           0           0           0
           0           0           0           0           0           0
           0           0           0           0           0           0
           0           0           0           0           0           0
           0           0           0           0           0           0
           0           0           0           0           0           0
           0           0           0           0           0           0
           0           0           0           0           0           0
           0           0           0           0           0           0
           0           0           0           0           0           0
           0           0           0           0           0           0
           0           0           0           0           0           0
           0           0           0           0           0           0
           0           0           0           0           0           0
           0           0           0           0           0           0
           0           0           0           0           0           0
           0           0           0           0           0           0
           0           0           0           0           0           0
           0           0           0           0           0           0
           0           0           0           0           0           0
           0           0           0           0           0           0
           0           0           0           0           0           0
           0           0           0           0           0           0
           0           0           0           0           0           0
           0           0           0           0           0           0
           0           0           0           0           0           0
           0           0           0           0           0           0
           0           0           0           0           0           0
           0           0           0           0           0           0
           0           0           0           0           0           0
           0           0           0           0           0           0
           0           0           0           0           0           0
           0           0           0           0           0           0
           0           0           0           0           0           0
           0           0           0           0           0           0
           0           0           0           0           0           0
           0           0           0           0           0           0
           0           0           0           0           0           0
           0           0           0           0           0           0
           0           0           0           0           0           0
           0           0           0           0           0           0
           0           0           0           0           0           0
           0           0           0           0           0           0
           0           0           0           0           0           0
           0           0           0           0           0           0
           0           0           0           0           0           0
           0           0           0           0           0           0
           0           0           0           0           0           0
           0           0           0           0           0           0
           0           0           0           0           0           0
           0           0           0           0           0           0
           0           0           0           0           0           0
           0           0           0           0           0           0
           0           0           0           0           0           0
           0           0           0           0           0           0
           0           0           0           0           0           0
           0           0           0           0           0           0
           0           0           0           0           0           0
           0           0           0           0           0           0
           0           0           0           0           0           0
           0           0           0           0           0           0
           0           0           0           0           0           0
           0           0           0           0           0           0
           0           0           0           0           0           0
           0           0           0           0           0           0
           0           0           0           0           0           0
           0           0           0           0           0           0
           0           0           0           0           0           0
           0           0           0           0           0           0
           0           0           0           0           0           0
           0           0           0           0           0           0
           0           0           0           0           0           0
           0           0           0           0           0           0
           0           0           0           0           0           0
           0           0           0           0           0           0
           0           0           0           0           0           0
           0           0           0           0           0           0
           0           0           0           0           0           0
           0           0           0           0           0           0
           0           0           0           0           0           0
           0           0           0           0           0           0
           0           0           0           0           0           0
           0           0           0           0           0           0
           0           0           0           0           0           0
           0           0           0           0           0           0
           0           0           0           0           0           0
           0           0           0           0           0           0
           0           0           0           0           0           0
           0           0           0           0           0           0
           0           0           0           0           0           0
           0           0           0           0           0           0
           0           0           0           0           0           0
           0           0           0           0           0           0
           0           0           0           0           0           0
           0           0           0           0           0           0
           0           0           0           0           0           0
           0           0           0           0           0           0
           0           0           0           0           0           0
           0           0           0           0           0           0
           0           0           0           0           0           0
           0           0           0           0           0           0
           0           0           0           0           0           0
           0           0           0           0           0           0
           0           0           0           0           0           0
           0           0           0           0           0           0
           0           0           0           0           0           0
           0           0           0           0           0           0
           0           0           0           0           0           0
           0           0           0           0           0           0
           0           0           0           0           0           0
           0           0           0           0           0           0
           0           0           0           0           0           0
           0           0           0           0           0           0
           0           0           0           0           0           0
           0           0           0           0           0           0
           0           0           0           0           0           0
           0           0           0           0           0           0
           0           0           0           0           0           0
           0           0           0           0           0           0
           0           0           0           0           0           0
           0           0           0           0           0           0
           0           0           0           0           0           0
           0           0           0           0           0           0
           0           0           0           0           0           0
           0           0           0           0           0           0
           0           0           0           0           0           0
           0           0           0           0           0           0
           0           0           0           0           0           0
           0           0           0           0           0           0
           0           0           0           0           0           0
           0           0           0           0           0           0
           0           0           0           0           0           0
           0           0           0           0           0           0