dimeth                                                                  
SP        UHF-FC                                                      6-31G               
Number of atoms                            I                4
Info1-9                                    I   N=           9
          14          14           0           0           0         110
           1         301           1
Full Title                                 C   N=           1
dimeth      
Route                                      C   N=           6
#p CIS/6-31G nosym td=(nstates=3) scf=(maxcyc=2048) density=
all         
Charge                                     I                1
Multiplicity                               I                2
Number of electrons                        I               15
Number of alpha electrons                  I                8
Number of beta electrons                   I                7
Number of basis functions                  I               22
Number of independent functions            I               22
Number of point charges in /Mol/           I                0
Number of translation vectors              I                0
Atomic numbers                             I   N=           4
           6           8           1           1
Nuclear charges                            R   N=           4
  6.00000000E+00  8.00000000E+00  1.00000000E+00  1.00000000E+00
Current cartesian coordinates              R   N=          12
 -2.42538789E+00  6.86930564E+00 -9.23887102E-02 -1.79864133E-01  6.48776994E+00
 -3.66871430E-01 -3.49211939E+00  6.47452296E+00  1.64748213E+00 -3.68154554E+00
  7.65877652E+00 -1.54829041E+00
Number of symbols in /Mol/                 I                0
Force Field                                I                0
Atom Types                                 C   N=           4
                                                
Int Atom Types                             I   N=           4
           0           0           0           0
MM charges                                 R   N=           4
  0.00000000E+00  0.00000000E+00  0.00000000E+00  0.00000000E+00
Integer atomic weights                     I   N=           4
          12          16           1           1
Real atomic weights                        R   N=           4
  1.20000000E+01  1.59949146E+01  1.00782504E+00  1.00782504E+00
Atom fragment info                         I   N=           4
           0           0           0           0
Atom residue num                           I   N=           4
           0           0           0           0
Nuclear spins                              I   N=           4
           0           0           1           1
Nuclear ZEff                               R   N=           4
 -3.60000000E+00 -5.60000000E+00 -1.00000000E+00 -1.00000000E+00
Nuclear ZNuc                               R   N=           4
  6.00000000E+00  8.00000000E+00  1.00000000E+00  1.00000000E+00
Nuclear QMom                               R   N=           4
  0.00000000E+00  0.00000000E+00  0.00000000E+00  0.00000000E+00
Nuclear GFac                               R   N=           4
  0.00000000E+00  0.00000000E+00  2.79284600E+00  2.79284600E+00
MicOpt                                     I   N=           4
          -1          -1          -1          -1
Number of residues                         I                0
Number of secondary structures             I                0
Number of contracted shells                I               10
Number of primitive shells                 I               28
Pure/Cartesian d shells                    I                1
Pure/Cartesian f shells                    I                0
Highest angular momentum                   I                1
Largest degree of contraction              I                6
Shell types                                I   N=          10
           0          -1          -1           0          -1          -1
           0           0           0           0
Number of primitives per shell             I   N=          10
           6           3           1           6           3           1
           3           1           3           1
Shell to atom map                          I   N=          10
           1           1           1           2           2           2
           3           3           4           4
Primitive exponents                        R   N=          28
  3.04752488E+03  4.57369518E+02  1.03948685E+02  2.92101553E+01  9.28666296E+00
  3.16392696E+00  7.86827235E+00  1.88128854E+00  5.44249258E-01  1.68714478E-01
  5.48467166E+03  8.25234946E+02  1.88046958E+02  5.29645000E+01  1.68975704E+01
  5.79963534E+00  1.55396162E+01  3.59993359E+00  1.01376175E+00  2.70005823E-01
  1.87311370E+01  2.82539436E+00  6.40121692E-01  1.61277759E-01  1.87311370E+01
  2.82539436E+00  6.40121692E-01  1.61277759E-01
Contraction coefficients                   R   N=          28
  1.83473713E-03  1.40373228E-02  6.88426223E-02  2.32184443E-01  4.67941348E-01
  3.62311985E-01 -1.19332420E-01 -1.60854152E-01  1.14345644E+00  1.00000000E+00
  1.83107443E-03  1.39501722E-02  6.84450781E-02  2.32714336E-01  4.70192898E-01
  3.58520853E-01 -1.10777550E-01 -1.48026263E-01  1.13076702E+00  1.00000000E+00
  3.34946043E-02  2.34726953E-01  8.13757326E-01  1.00000000E+00  3.34946043E-02
  2.34726953E-01  8.13757326E-01  1.00000000E+00
P(S=P) Contraction coefficients            R   N=          28
  0.00000000E+00  0.00000000E+00  0.00000000E+00  0.00000000E+00  0.00000000E+00
  0.00000000E+00  6.89990666E-02  3.16423961E-01  7.44308291E-01  1.00000000E+00
  0.00000000E+00  0.00000000E+00  0.00000000E+00  0.00000000E+00  0.00000000E+00
  0.00000000E+00  7.08742682E-02  3.39752839E-01  7.27158577E-01  1.00000000E+00
  0.00000000E+00  0.00000000E+00  0.00000000E+00  0.00000000E+00  0.00000000E+00
  0.00000000E+00  0.00000000E+00  0.00000000E+00
Coordinates of each shell                  R   N=          30
 -2.42538789E+00  6.86930564E+00 -9.23887102E-02 -2.42538789E+00  6.86930564E+00
 -9.23887102E-02 -2.42538789E+00  6.86930564E+00 -9.23887102E-02 -1.79864133E-01
  6.48776994E+00 -3.66871430E-01 -1.79864133E-01  6.48776994E+00 -3.66871430E-01
 -1.79864133E-01  6.48776994E+00 -3.66871430E-01 -3.49211939E+00  6.47452296E+00
  1.64748213E+00 -3.49211939E+00  6.47452296E+00  1.64748213E+00 -3.68154554E+00
  7.65877652E+00 -1.54829041E+00 -3.68154554E+00  7.65877652E+00 -1.54829041E+00
Num ILSW                                   I              100
ILSW                                       I   N=         100
           1           1           0           0           2           0
           0           0           0           0           0          -1
           5           0           0           0           0           0
           0           0           0           0           0           0
           1           1           0           0           0           0
           0           0      100000           0          -1           0
           0           0           0           0           0           0
           0           0           0           1           0           0
           0 -2000000000           1           0           0           0
           0           0           4          52           0           0
           0           0           0           0           0           0
           0           0           0           4           0           1
           0           0           0           0           0           0
           0           0           0           0           0           0
           0           0           0           0           0           0
           0           0           0           0           0           0
           0           0           0           0
Num RLSW                                   I               52
RLSW                                       R   N=          52
  1.00000000E+00  1.00000000E+00  1.00000000E+00  1.00000000E+00  1.00000000E+00
  0.00000000E+00  0.00000000E+00  1.00000000E+00  0.00000000E+00  0.00000000E+00
  0.00000000E+00  0.00000000E+00  1.00000000E+00  0.00000000E+00  0.00000000E+00
  0.00000000E+00  0.00000000E+00  1.00000000E+00  0.00000000E+00  0.00000000E+00
  0.00000000E+00  0.00000000E+00  1.00000000E+00  0.00000000E+00  0.00000000E+00
  0.00000000E+00  0.00000000E+00  1.00000000E+00  0.00000000E+00  0.00000000E+00
  0.00000000E+00  0.00000000E+00  1.00000000E+00  0.00000000E+00  0.00000000E+00
  0.00000000E+00  0.00000000E+00  0.00000000E+00  1.00000000E+00  1.00000000E+00
  0.00000000E+00  1.00000000E+00  0.00000000E+00  0.00000000E+00  0.00000000E+00
  0.00000000E+00  0.00000000E+00  0.00000000E+00  0.00000000E+00  0.00000000E+00
  0.00000000E+00  0.00000000E+00
MxBond                                     I                3
NBond                                      I   N=           4
           3           1           1           1
IBond                                      I   N=          12
           2           3           4           1           0           0
           1           0           0           1           0           0
RBond                                      R   N=          12
  2.00000000E+00  1.00000000E+00  1.00000000E+00  2.00000000E+00  0.00000000E+00
  0.00000000E+00  1.00000000E+00  0.00000000E+00  0.00000000E+00  1.00000000E+00
  0.00000000E+00  0.00000000E+00
Virial Ratio                               R      1.999870079557492E+00
SCF Energy                                 R     -1.134579916824229E+02
CIS Energy                                 R     -1.133333566447802E+02
Total Energy                               R     -1.133333566447802E+02
Post-SCF wavefunction norm                 R      1.000000000000000E+00
S**2                                       R      8.076300944043453E-01
S**2 after annihilation                    R      7.513839146043516E-01
RMS Density                                R      2.195076747414456E-09
Job Status                                 I                1
Nuclear derivative order                   I                0
External E-field                           R   N=          35
  0.00000000E+00  0.00000000E+00  0.00000000E+00  0.00000000E+00  0.00000000E+00
  0.00000000E+00  0.00000000E+00  0.00000000E+00  0.00000000E+00  0.00000000E+00
  0.00000000E+00  0.00000000E+00  0.00000000E+00  0.00000000E+00  0.00000000E+00
  0.00000000E+00  0.00000000E+00  0.00000000E+00  0.00000000E+00  0.00000000E+00
  0.00000000E+00  0.00000000E+00  0.00000000E+00  0.00000000E+00  0.00000000E+00
  0.00000000E+00  0.00000000E+00  0.00000000E+00  0.00000000E+00  0.00000000E+00
  0.00000000E+00  0.00000000E+00  0.00000000E+00  0.00000000E+00  0.00000000E+00
IOpCl                                      I                1
IROHF                                      I                0
Alpha Orbital Energies                     R   N=          22
 -2.10839221E+01 -1.17101344E+01 -1.90654403E+00 -1.24062467E+00 -1.13689258E+00
 -1.06491439E+00 -1.00307213E+00 -8.82471178E-01 -2.19236903E-01 -2.25217618E-02
  4.17998200E-02  5.42167071E-02  4.41575469E-01  4.70980775E-01  5.60643428E-01
  6.26504597E-01  7.93147418E-01  8.12295886E-01  8.58903928E-01  8.76108703E-01
  9.68351567E-01  1.48215166E+00
Beta Orbital Energies                      R   N=          22
 -2.10324305E+01 -1.17197253E+01 -1.77406572E+00 -1.20378732E+00 -1.01169709E+00
 -9.80452564E-01 -9.06724763E-01 -2.64845644E-01 -2.21688818E-01 -1.61628172E-02
  6.35077042E-02  7.48540012E-02  4.15189825E-01  5.07855124E-01  5.72259350E-01
  6.33559027E-01  8.29444535E-01  8.33490538E-01  8.98811601E-01  9.14110139E-01
  1.09664877E+00  1.52544360E+00
Alpha MO coefficients                      R   N=         484
  1.60695161E-04 -5.09617666E-05 -9.81368619E-05  1.66756953E-05  1.19925450E-05
  5.70315276E-03  3.73175174E-03 -6.34066445E-04 -4.56133998E-04  9.95550171E-01
  2.40789427E-02 -2.51177765E-03  4.26774068E-04  3.07028366E-04 -1.18485523E-02
  3.88338871E-03 -6.59822431E-04 -4.74693569E-04 -2.31748117E-04  1.54079684E-04
 -2.31745688E-04  1.54108671E-04  9.96217780E-01  2.35413826E-02  1.86364150E-03
 -3.16647955E-04 -2.27810990E-04 -9.46641182E-03  1.16043422E-03 -1.97184725E-04
 -1.41833576E-04 -3.60682417E-04  2.56013194E-04 -3.31010537E-04  5.62416238E-05
  4.04617354E-05 -5.02091941E-04  1.38778447E-03 -2.35793511E-04 -1.69639733E-04
 -4.36102549E-05  2.51633277E-03 -4.36075441E-05  2.51637852E-03 -9.37604277E-02
  1.87182838E-01  1.63587666E-01 -2.77950558E-02 -1.99962375E-02 -2.29226971E-02
 -6.28698966E-02  1.06822892E-02  7.68478896E-03 -2.11430604E-01  5.00169446E-01
 -1.58557070E-01  2.69403584E-02  1.93813414E-02  4.53140137E-01 -7.79272071E-02
  1.32405577E-02  9.52549552E-03  2.04501899E-02 -8.50807803E-03  2.04504457E-02
 -8.50863599E-03 -1.70907642E-01  4.00032759E-01 -8.54851040E-02  1.45269091E-02
  1.04463527E-02  3.18020716E-01 -4.45839430E-02  7.57577125E-03  5.44950375E-03
  8.92241168E-02 -2.20729423E-01 -2.58557509E-01  4.39326186E-02  3.16031370E-02
 -2.96556577E-01 -8.48419242E-02  1.44159167E-02  1.03698891E-02  1.71239880E-01
  3.23457722E-02  1.71244245E-01  3.23462655E-02 -6.83084905E-07  1.74972445E-06
  1.68430857E-02 -1.05279096E-01  2.84099404E-01  1.30376448E-06  6.16643010E-03
 -3.85488688E-02  1.04025987E-01  1.08891143E-06 -2.60834027E-06  3.32277771E-02
 -2.07776718E-01  5.60700902E-01 -4.47303213E-06  1.59344824E-02 -9.96354003E-02
  2.68873090E-01  1.02117240E-01  2.45892700E-02 -1.02117464E-01 -2.45890058E-02
 -2.17164381E-02  1.08666040E-02 -4.05422423E-01  6.88864001E-02  4.95579093E-02
  1.50413775E-01 -6.40550316E-02  1.08837759E-02  7.83082932E-03 -5.53474794E-02
  1.35674320E-01  5.04214415E-01 -8.56717934E-02 -6.16246372E-02  2.17128017E-01
  2.16811255E-01 -3.68388124E-02 -2.64977067E-02  1.35966243E-01  5.51838648E-02
  1.35968367E-01  5.51846660E-02  3.57717797E-07 -7.66443090E-07  4.17907187E-02
  1.95588869E-01  7.00020287E-02 -8.46413270E-07  1.51464817E-02  7.08900725E-02
  2.53718563E-02  6.26979840E-08 -1.15967492E-07  1.28052080E-01  5.99338649E-01
  2.14506043E-01 -3.41279471E-07  7.49567713E-02  3.50828736E-01  1.25563195E-01
 -6.17227558E-07 -3.87209700E-07 -6.17244204E-07 -3.87220525E-07  4.52437629E-07
 -2.46976013E-07 -2.23525390E-02  1.39755648E-01 -3.77139362E-01 -4.69591481E-06
 -1.13029591E-02  7.06693926E-02 -1.90705727E-01 -8.55497176E-08  1.97699830E-07
  2.39319139E-02 -1.49635773E-01  4.03802007E-01  1.00774256E-06  1.66223405E-02
 -1.03932132E-01  2.80467707E-01 -2.54083630E-01 -1.39685047E-01  2.54080509E-01
  1.39682179E-01  6.63748071E-07 -1.06852805E-06  1.00137832E-01  4.68676701E-01
  1.67741391E-01 -4.44156014E-06  1.35623764E-01  6.34761635E-01  2.27183892E-01
 -8.43567116E-08  3.75545158E-07 -6.07886617E-02 -2.84510565E-01 -1.01827550E-01
 -1.17083897E-07 -7.13197653E-02 -3.33801243E-01 -1.19468917E-01  8.58281891E-07
  1.61623495E-06  8.58281957E-07  1.61621894E-06 -1.29026712E-01  2.17945999E-01
 -1.87462083E-01  3.18491457E-02  2.29281144E-02  1.95151859E+00 -6.22687414E-01
  1.05797660E-01  7.61439487E-02  1.10729049E-02 -3.40398469E-02  9.28783079E-02
 -1.57804277E-02 -1.13570348E-02 -4.43725201E-02  1.18105073E-01 -2.00666555E-02
 -1.44440209E-02 -8.34167998E-02 -1.40110002E+00 -8.34115709E-02 -1.40104930E+00
  5.39271299E-06 -4.86571794E-06  2.66687863E-02 -1.66750150E-01  4.49986464E-01
 -1.26748854E-04  7.64134316E-02 -4.78124515E-01  1.29028347E+00 -4.47686137E-06
  7.66479601E-06 -7.79737876E-03  4.86732138E-02 -1.31340205E-01  8.59394179E-05
 -1.70258703E-02  1.06202078E-01 -2.86569139E-01 -6.72171719E-02 -1.61394242E+00
  6.72197416E-02  1.61400015E+00 -5.16415824E-02 -1.99839496E-02  1.49807354E-01
 -2.54615442E-02 -1.82900382E-02  1.34428571E+00  1.91855453E+00 -3.26005012E-01
 -2.34451151E-01  9.03311260E-02 -1.42817660E-01  2.05947037E-01 -3.49902044E-02
 -2.51800924E-02 -1.88232782E+00  7.99757811E-01 -1.35881052E-01 -9.77725698E-02
 -2.91001119E-02  3.33230866E-01 -2.90958158E-02  3.33401804E-01 -3.14139616E-07
  2.73647778E-06 -2.13951898E-01 -1.00137136E+00 -3.58395195E-01 -2.18478472E-07
  2.20962132E-01  1.03419162E+00  3.70141834E-01 -8.40173942E-09  8.48080236E-08
 -7.93477928E-03 -3.71395054E-02 -1.32924156E-02  7.63657619E-07 -1.79111149E-02
 -8.38298561E-02 -3.00030654E-02 -6.29885703E-07 -1.64842892E-06 -6.30002623E-07
 -1.64861923E-06  1.46150237E-06  9.18531806E-06 -3.93576322E-02  2.45990482E-01
 -6.63812425E-01 -4.35536739E-05  1.07387533E-01 -6.71152697E-01  1.81112172E+00
 -3.20195377E-07  2.55215661E-06 -2.01561813E-02  1.25990610E-01 -3.39990426E-01
 -1.05911263E-05 -2.61644275E-03  1.63435511E-02 -4.41026313E-02 -3.69592965E-01
 -6.51931576E-01  3.69611078E-01  6.51965250E-01 -7.31586400E-02 -8.07861099E-02
  9.57930375E-01 -1.62754696E-01 -1.17110353E-01  1.30371119E+00 -1.23337306E+00
  2.09555679E-01  1.50791093E-01  4.84846196E-02 -2.52358524E-01  2.83053989E-01
 -4.80933151E-02 -3.46048113E-02  1.86332432E-01  4.32659022E-01 -7.35128031E-02
 -5.28854262E-02 -4.47115019E-01 -3.42376459E-01 -4.47108436E-01 -3.42365694E-01
 -2.55660269E-03 -1.54813461E+00 -5.56900858E-01  9.46236738E-02  6.80700706E-02
  2.06188074E+00 -3.49016623E-01  5.93059997E-02  4.26627469E-02 -2.57805282E-02
 -1.14121997E-02 -2.38952788E-01  4.05987365E-02  2.92060937E-02  1.35191913E-01
 -3.56623752E-01  6.05942144E-02  4.35939497E-02 -4.69587147E-01 -3.87772357E-01
 -4.69575556E-01 -3.87798909E-01 -1.05959851E-05  1.68257852E-04  4.73474106E-02
 -2.96439049E-01  7.99998186E-01 -4.16513620E-04 -9.03872209E-02  5.65507259E-01
 -1.52609260E+00 -3.04236948E-06  1.44376576E-05 -1.78709155E-02  1.12151305E-01
 -3.02687061E-01  5.81149223E-05  3.24011898E-02 -2.03322836E-01  5.48750016E-01
 -7.31144142E-01  1.57252257E+00  7.30958073E-01 -1.57214150E+00  7.10041637E-02
 -8.24337198E-01  4.24661281E-01 -7.22013862E-02 -5.17841362E-02  2.38385344E+00
 -3.86428139E-01  6.57495779E-02  4.69938526E-02  2.94864914E-02 -1.79620730E-01
 -5.97601862E-01  1.01557141E-01  7.29989414E-02 -2.90734484E-01  1.02672416E+00
 -1.74484473E-01 -1.25412160E-01  5.00846731E-01 -1.04816335E+00  5.01069100E-01
 -1.04865768E+00  3.49480687E-07  7.10388743E-06  1.23397301E-02  5.77605988E-02
  2.06728503E-02 -1.25507767E-05 -9.62246339E-02 -4.50394294E-01 -1.61198452E-01
  1.18813341E-07 -6.51100006E-07 -1.82155759E-01 -8.52542678E-01 -3.05128613E-01
 -3.95069487E-07  2.50250081E-01  1.17124334E+00  4.19192910E-01  1.03615011E-06
  5.26487805E-06  1.03590179E-06  5.26547891E-06 -9.64820700E-03 -1.05687399E+00
  4.03463081E-01 -6.85652237E-02 -4.92865682E-02  1.57239430E+00 -4.68159898E-01
  7.95746330E-02  5.71470190E-02 -3.06588171E-02  3.28095040E-01  6.31514067E-01
 -1.07294381E-01 -7.72195931E-02 -3.52613093E-01 -7.78581948E-01  1.32276412E-01
  9.52172590E-02  4.66507924E-01 -8.79790611E-01  4.66550364E-01 -8.79923662E-01
 -2.50221992E-07  2.13023167E-05  1.83104530E-04 -1.22297050E-03  3.30772326E-03
 -2.20139437E-05 -7.88690005E-02  4.93082407E-01 -1.33061055E+00  1.96044143E-08
 -1.32627356E-06 -4.29453737E-02  2.68429454E-01 -7.24366082E-01  8.09609031E-06
  8.17215641E-02 -5.10861916E-01  1.37858435E+00  5.08213512E-01  2.94905523E-01
 -5.08236221E-01 -2.94883835E-01 -2.49789522E-02 -2.02551210E-01 -2.60150508E-01
  4.42009557E-02  3.18018402E-02 -2.19530458E+00 -1.29797499E+00  2.20541754E-01
  1.58647349E-01  3.48104858E-02 -1.80726905E+00  2.95736687E-01 -5.02480019E-02
 -3.61513111E-02  3.85461451E+00 -1.56944792E+00  2.66662661E-01  1.91847610E-01
  1.65804524E-01 -6.38372442E-02  1.65800890E-01 -6.38491806E-02
Beta MO coefficients                       R   N=         484
  1.43379940E-04  2.27137720E-04  1.64209119E-04 -2.78994401E-05 -2.00752654E-05
  5.22115112E-03  3.30162080E-03 -5.60981895E-04 -4.03559595E-04  9.96255333E-01
  2.07239925E-02 -2.41483687E-03  4.10303087E-04  2.95178424E-04 -1.08116249E-02
  3.75305872E-03 -6.37678618E-04 -4.58761398E-04 -1.96113479E-04  1.05588097E-04
 -1.96111822E-04  1.05612282E-04  9.96034083E-01  2.43858310E-02  1.94581120E-03
 -3.30610288E-04 -2.37855014E-04 -9.53816459E-03  1.20014418E-03 -2.03932061E-04
 -1.46687354E-04 -3.84772654E-04  2.21202800E-04 -2.80546422E-04  4.76677029E-05
  3.42927474E-05 -4.83371233E-04  1.39689360E-03 -2.37341038E-04 -1.70753317E-04
 -1.82273915E-04  2.56660420E-03 -1.82273193E-04  2.56665203E-03 -1.19317965E-01
  2.63346364E-01  2.01618991E-01 -3.42569281E-02 -2.46450689E-02  4.55408651E-02
 -5.05694165E-02  8.59233215E-03  6.18129683E-03 -1.88969488E-01  4.28745039E-01
 -1.83628521E-01  3.12003297E-02  2.24458070E-02  3.91012765E-01 -6.86793955E-02
  1.16692819E-02  8.39504881E-03  2.90065141E-02 -1.26209845E-02  2.90069188E-02
 -1.26215497E-02 -1.65236274E-01  3.81112313E-01 -1.91222011E-01  3.24926647E-02
  2.33709121E-02  3.67008511E-01 -5.95433655E-02  1.01176160E-02  7.27790072E-03
  1.00386514E-01 -2.38809421E-01 -1.47441451E-01  2.50522999E-02  1.80220893E-02
 -3.12113531E-01 -5.42472106E-02  9.21730367E-03  6.63072368E-03  1.64519597E-01
  2.37834028E-02  1.64524691E-01  2.37841589E-02 -6.49825889E-04 -4.21305614E-02
 -3.94517768E-01  6.70385578E-02  4.82099642E-02  1.25549972E-01 -6.30048817E-02
  1.07079644E-02  7.69492653E-03 -7.92877218E-02  1.87050657E-01  5.06811930E-01
 -8.61105751E-02 -6.19533105E-02  2.96592340E-01  2.41702373E-01 -4.10669417E-02
 -2.95454487E-02  9.63606695E-02  3.94299801E-02  9.63737703E-02  3.94331615E-02
 -1.09049837E-06  8.71424492E-07  2.96588459E-02 -1.85497748E-01  5.00583068E-01
  8.64300861E-06  1.55931845E-02 -9.74979680E-02  2.63104759E-01 -1.47760247E-06
  3.53085893E-06  8.27728333E-03 -5.16650885E-02  1.39413140E-01  4.73464977E-06
  3.03662408E-03 -1.89408158E-02  5.11086624E-02  1.99077346E-01  4.50777301E-02
 -1.99069832E-01 -4.50736300E-02  3.28822078E-07 -8.25782550E-07  6.73449077E-02
  3.15194618E-01  1.12809488E-01 -7.33161335E-07  3.30994556E-02  1.54917468E-01
  5.54456424E-02 -1.50557540E-08  8.53019708E-08  1.04756534E-01  4.90303720E-01
  1.75481920E-01  8.78393209E-09  6.99764207E-02  3.27517668E-01  1.17220046E-01
 -1.77051793E-07 -2.95405161E-07 -1.77058055E-07 -2.95417409E-07 -2.10814123E-07
  1.24183173E-06 -2.70129035E-03  1.68877344E-02 -4.55724506E-02 -3.29143428E-06
  1.13831568E-02 -7.11537895E-02  1.92011277E-01 -2.86646422E-08  2.25248602E-07
  2.80808101E-02 -1.75564704E-01  4.73771765E-01 -6.11872500E-07  2.81607787E-02
 -1.76063822E-01  4.75118581E-01 -1.77812347E-01 -4.17450648E-01  1.77811507E-01
  4.17448572E-01  5.58579709E-07 -8.69690974E-07  9.68021301E-02  4.53064577E-01
  1.62153745E-01 -4.51922360E-06  1.24819480E-01  5.84193772E-01  2.09085433E-01
 -7.00598422E-08  2.80674127E-07 -7.84457345E-02 -3.67152462E-01 -1.31405453E-01
 -6.27471627E-08 -9.40436826E-02 -4.40157412E-01 -1.57534257E-01  9.38370651E-07
  1.91720198E-06  9.38369665E-07  1.91719007E-06 -1.20205453E-01  2.12783288E-01
 -1.91187155E-01  3.24837190E-02  2.33787754E-02  1.87852253E+00 -6.64197348E-01
  1.12856204E-01  8.12022416E-02  8.02942402E-03 -2.49444012E-02  8.16215786E-02
 -1.38677358E-02 -9.98167181E-03  8.09209825E-03  9.43300624E-02 -1.60271736E-02
 -1.15384405E-02 -7.57515933E-02 -1.41158634E+00 -7.57501293E-02 -1.41157194E+00
  5.08505533E-02  4.42709784E-02 -1.14545727E-01  1.94538326E-02  1.40255448E-02
 -1.44753470E+00 -1.93142651E+00  3.28147547E-01  2.36148137E-01 -9.49439127E-02
  1.31603976E-01 -2.04127592E-01  3.46870035E-02  2.49410850E-02  1.94689904E+00
 -8.07827431E-01  1.37265417E-01  9.87220321E-02  2.84265442E-02 -2.83838476E-01
  2.84297560E-02 -2.83695335E-01 -1.02575689E-06 -6.35428093E-06  2.79457674E-02
 -1.74664504E-01  4.71337183E-01  3.44496023E-05  7.04285415E-02 -4.39593027E-01
  1.18619768E+00  4.82298143E-06 -6.31837188E-06 -1.16700890E-02  7.30157016E-02
 -1.97042248E-01 -1.04243309E-04 -2.64483890E-02  1.65604996E-01 -4.46918427E-01
 -1.02907487E-02 -1.55278064E+00  1.02857740E-02  1.55286868E+00 -2.55903776E-07
  3.08762548E-06 -2.08948772E-01 -9.77954170E-01 -3.50014070E-01 -1.32659075E-06
  2.27295215E-01  1.06383070E+00  3.80749766E-01 -2.15425108E-08  1.42279557E-07
 -7.04510395E-03 -3.29752060E-02 -1.18019909E-02  8.07059657E-07 -2.13268202E-02
 -9.98163140E-02 -3.57246854E-02 -3.95952882E-07 -1.42975626E-06 -3.95984703E-07
 -1.42982092E-06  1.72715291E-06  1.00881655E-05 -4.31442346E-02  2.69641854E-01
 -7.27634866E-01 -5.21323431E-05  1.31233157E-01 -8.20191472E-01  2.21330720E+00
 -5.33479672E-07  3.30203582E-06 -1.78482890E-02  1.11554303E-01 -3.01032519E-01
 -1.15082631E-05 -1.95694987E-02  1.22324629E-01 -3.30097753E-01 -3.09051511E-01
 -9.89913688E-01  3.09074256E-01  9.89953039E-01 -6.95121132E-02 -1.90914001E-01
  9.66625206E-01 -1.64230726E-01 -1.18178438E-01  1.58979144E+00 -1.22477029E+00
  2.08088980E-01  1.49756395E-01  5.46181928E-02 -2.47231347E-01  2.71218340E-01
 -4.60823691E-02 -3.31577081E-02  7.41800813E-02  4.89636604E-01 -8.31921362E-02
 -5.98561883E-02 -4.29199430E-01 -4.35800230E-01 -4.29195317E-01 -4.35767417E-01
  1.87859667E-03 -1.62707125E+00 -5.41598358E-01  9.20239733E-02  6.61970678E-02
  2.16848173E+00 -3.85569934E-01  6.55156617E-02  4.71363671E-02 -3.26765369E-02
  1.32827484E-02 -2.46192764E-01  4.18289939E-02  3.00919694E-02  1.47224805E-01
 -3.91837405E-01  6.65770898E-02  4.78964543E-02 -4.13068953E-01 -4.77572576E-01
 -4.13062259E-01 -4.77587735E-01 -5.20191215E-05  6.69178281E-04  4.13581941E-02
 -2.60616558E-01  7.03484027E-01 -1.82007789E-03 -5.94962500E-02  3.73619819E-01
 -1.00839202E+00 -1.75245116E-05  7.49278567E-05 -1.40258805E-02  8.99633794E-02
 -2.42988438E-01  2.88117457E-04  1.34689090E-02 -8.82063647E-02  2.38411762E-01
 -8.52595716E-01  1.36475925E+00  8.51669611E-01 -1.36306979E+00  7.02809249E-02
 -8.47960498E-01  4.44826293E-01 -7.57739707E-02 -5.38405883E-02  2.38571197E+00
 -3.50833216E-01  5.98890132E-02  4.21189951E-02  2.60495206E-02 -1.21704420E-01
 -5.38144755E-01  9.15029298E-02  6.55973877E-02 -3.71346780E-01  9.36492616E-01
 -1.59185996E-01 -1.14291241E-01  5.91815190E-01 -1.08989744E+00  5.93091107E-01
 -1.09195206E+00 -1.65525239E-02 -8.82603762E-01  3.51809184E-01 -5.97891776E-02
 -4.29719539E-02  1.14117634E+00 -4.09524727E-01  6.96030627E-02  5.00132490E-02
 -3.46973015E-02  3.32100841E-01  7.13596920E-01 -1.21237778E-01 -8.72397678E-02
 -2.63748945E-01 -8.94151029E-01  1.51914379E-01  1.09310240E-01  4.43958801E-01
 -7.31850176E-01  4.44033360E-01 -7.31973029E-01  2.20479696E-07 -1.15202234E-06
  1.16732226E-02  5.46272769E-02  1.95512458E-02 -8.42386543E-07 -9.14820575E-02
 -4.28178474E-01 -1.53247074E-01 -1.40472147E-07  1.84265894E-06 -1.90150643E-01
 -8.89986948E-01 -3.18530403E-01 -2.59290225E-06  2.43827687E-01  1.14121663E+00
  4.08446630E-01  4.30584054E-06 -1.29750485E-06  4.30613164E-06 -1.29790984E-06
 -1.21351044E-07  4.36618417E-06  4.94537125E-03 -3.09401354E-02  8.34958011E-02
  8.13069836E-06 -7.64408039E-02  4.77862803E-01 -1.28953590E+00 -2.24397642E-07
  3.23653525E-06 -5.28270841E-02  3.30252500E-01 -8.91203187E-01 -7.49668655E-07
  8.04658220E-02 -5.03044364E-01  1.35749142E+00  3.40341214E-01  4.25971356E-01
 -3.40347563E-01 -4.25978880E-01 -2.54145739E-02 -1.95918934E-01 -2.50481964E-01
  4.25582080E-02  3.06199585E-02 -2.15985748E+00 -1.28597320E+00  2.18502675E-01
  1.57179983E-01  3.94444087E-02 -1.82449065E+00  2.90265925E-01 -4.93182183E-02
 -3.54832228E-02  3.82649905E+00 -1.53439996E+00  2.60707459E-01  1.87564045E-01
  1.60747577E-01 -6.40012407E-02  1.60743738E-01 -6.40134526E-02
Orthonormal basis                          R   N=         484
  5.86230823E-02  2.15628762E-01  2.52120162E-03 -4.27893655E-04 -3.08278899E-04
  2.50561601E-01 -1.95703293E-02  3.32579011E-03  2.39236224E-03  2.09576941E-02
  8.14145216E-02 -6.05032525E-02  1.02801878E-02  7.39567630E-03  1.28021119E-01
 -1.45205257E-01  2.46720243E-02  1.77493290E-02  1.16601391E-01  1.86962737E-01
  1.16602552E-01  1.86963773E-01  3.17485363E-03  1.52890692E-02  2.50440500E-01
 -4.25570644E-02 -3.06014583E-02  1.63614256E-02  3.21974318E-01 -5.47128066E-02
 -3.93420835E-02  8.07195014E-02  2.45810915E-01 -5.93627664E-02  1.00842474E-02
  7.26096726E-03  2.62616667E-01 -2.85375696E-02  4.84480326E-03  3.49753997E-03
 -1.17364474E-01 -1.00791096E-01 -1.17382849E-01 -1.00806967E-01 -2.77417475E-07
 -9.82757603E-07  1.43262363E-02 -8.96366356E-02  2.41896196E-01 -6.64628940E-07
  1.90336457E-02 -1.19089522E-01  3.21378617E-01 -3.86286992E-06 -1.16878320E-05
  6.28444456E-03 -3.92732249E-02  1.05979417E-01 -1.24213993E-05  1.21908880E-02
 -7.62091505E-02  2.05653977E-01  1.82273337E-01  1.64047674E-01 -1.82261291E-01
 -1.64036068E-01 -4.52814136E-07 -1.00980804E-06  6.33682492E-02  2.96583670E-01
  1.06148564E-01 -8.41590168E-07  7.72355388E-02  3.61485525E-01  1.29377196E-01
  3.83194051E-07  9.15535943E-07  5.07482801E-02  2.37518612E-01  8.50089327E-02
  7.85984583E-07  7.68105559E-02  3.59497377E-01  1.28665641E-01  6.52062852E-08
 -1.43693972E-07  6.52070482E-08 -1.43695831E-07 -7.36170338E-02 -9.25406668E-02
 -2.23838952E-01  3.80321042E-02  2.73605447E-02  3.73754617E-02 -7.96685741E-03
  1.35314969E-03  9.73821729E-04  1.43329336E-01  2.53235160E-01  4.31485210E-01
 -7.33144945E-02 -5.27429973E-02  2.45454246E-01  4.10350076E-01 -6.97235574E-02
 -5.01595267E-02  9.42607271E-02  7.42145850E-02  9.42615338E-02  7.42145569E-02
  1.11362677E-06  1.15756470E-06 -5.79851644E-03  3.62465162E-02 -9.78127501E-02
 -2.39079097E-08 -3.27215571E-03  2.04584453E-02 -5.52083777E-02  2.21575406E-07
  2.80873318E-07  3.27230891E-02 -2.04584228E-01  5.52082233E-01  2.13991281E-07
  2.66702931E-02 -1.66743057E-01  4.49965748E-01 -2.35620155E-01 -1.19465084E-01
  2.35617596E-01  1.19462276E-01  4.70216168E-06  1.81359278E-06 -1.01409050E-01
 -4.74622739E-01 -1.69869457E-01  1.19496385E-06 -6.40507538E-02 -2.99779232E-01
 -1.07292285E-01 -5.52183768E-07 -2.43960359E-07  1.35090580E-01  6.32263624E-01